# Force and moment coefficients
# dragDir         : (9.8480776069e-01 1.7364813413e-01 0.0000000000e+00)
# sideDir         : (0.0000000000e+00 0.0000000000e+00 -1.0000000000e+00)
# liftDir         : (-1.7364813413e-01 9.8480776069e-01 0.0000000000e+00)
# rollAxis        : (9.8480776069e-01 1.7364813413e-01 0.0000000000e+00)
# pitchAxis       : (0.0000000000e+00 0.0000000000e+00 -1.0000000000e+00)
# yawAxis         : (-1.7364813413e-01 9.8480776069e-01 0.0000000000e+00)
# magUInf         : 1.4600000000e+01
# lRef            : 1.0000000000e+00
# Aref            : 1.0000000000e+00
# CofR            : (0.0000000000e+00 0.0000000000e+00 0.0000000000e+00)
#
# Time            	Cd                	Cd(f)             	Cd(r)             	Cl                	Cl(f)             	Cl(r)             	CmPitch           	CmRoll            	CmYaw             	Cs                	Cs(f)             	Cs(r)             
5.00086           	-1.9149929351e-02	-9.5749646755e-03	-9.5749646755e-03	1.2791396123e-01	6.6356537250e-02	6.1557423977e-02	2.3995566364e-03	1.0415687753e-23	-4.6772781632e-25	5.2405762833e-23	2.5735153600e-23	2.6670609233e-23
5.00172           	-1.9377697427e-02	-9.6888487136e-03	-9.6888487136e-03	1.2845870184e-01	6.6657133399e-02	6.1801568438e-02	2.4277824806e-03	1.8026023890e-24	-1.4851197586e-23	1.8239463014e-23	-5.7314660790e-24	2.3970929093e-23
5.00258           	-1.9221472398e-02	-9.6107361991e-03	-9.6107361991e-03	1.2839026356e-01	6.6622195591e-02	6.1768067970e-02	2.4270638106e-03	9.1789870897e-24	9.6682595412e-24	1.3690136019e-23	1.6513327551e-23	-2.8231915317e-24
5.00344           	-1.9185285264e-02	-9.5926426320e-03	-9.5926426320e-03	1.2848052925e-01	6.6684305065e-02	6.1796224187e-02	2.4440404391e-03	2.2279153450e-23	-2.9586017314e-23	6.5298072583e-23	3.0630189775e-24	6.2235053605e-23
5.0043            	-1.9178855734e-02	-9.5894278671e-03	-9.5894278671e-03	1.2858346125e-01	6.6753990829e-02	6.1829470418e-02	2.4622602056e-03	-1.1273202085e-23	2.5048252693e-23	-1.3403819798e-23	1.8346342794e-23	-3.1750162592e-23
5.00516           	-1.9145734334e-02	-9.5728671672e-03	-9.5728671672e-03	1.2868777421e-01	6.6825282088e-02	6.1862492124e-02	2.4813949820e-03	-2.1187954758e-23	7.4602361357e-25	-5.6243635441e-23	-2.7375794107e-23	-2.8867841334e-23
5.00602           	-1.9156981984e-02	-9.5784909922e-03	-9.5784909922e-03	1.2889208017e-01	6.6934470234e-02	6.1957609938e-02	2.4884301479e-03	2.9037008135e-23	-4.7811329428e-23	5.1329039556e-23	-2.2146809650e-23	7.3475849206e-23
5.00689           	-1.9048595715e-02	-9.5242978574e-03	-9.5242978574e-03	1.2886465689e-01	6.6922158542e-02	6.1942498351e-02	2.4898300955e-03	3.5929503894e-23	-3.2266558717e-23	7.6915129546e-23	6.1910060561e-24	7.0724123490e-23
5.00775           	-1.9265349542e-02	-9.6326747712e-03	-9.6326747712e-03	1.2947699394e-01	6.7243735447e-02	6.2233258496e-02	2.5052384758e-03	-1.8474165380e-23	-7.9048142873e-24	-8.4935519112e-23	-5.0372573843e-23	-3.4562945269e-23
5.00861           	-1.9212000633e-02	-9.6060003166e-03	-9.6060003166e-03	1.2941276447e-01	6.7229425371e-02	6.2183339102e-02	2.5230431344e-03	-1.4239645422e-23	-1.2080015534e-23	-7.7919289129e-23	-5.1039660098e-23	-2.6879629031e-23
5.00947           	-1.9248163869e-02	-9.6240819344e-03	-9.6240819344e-03	1.2984817916e-01	6.7444906696e-02	6.2403272462e-02	2.5208171174e-03	1.2781579806e-23	3.6706953551e-24	5.5498785815e-23	3.1420088262e-23	2.4078697552e-23
5.01033           	-1.9128593581e-02	-9.5642967906e-03	-9.5642967906e-03	1.2984383079e-01	6.7442800230e-02	6.2401030556e-02	2.5208848371e-03	-3.5518060819e-23	1.6635452014e-23	-1.3210424416e-22	-4.9416670068e-23	-8.2687574095e-23
5.01119           	-1.8930001343e-02	-9.4650006716e-03	-9.4650006716e-03	1.2961607322e-01	6.7343760543e-02	6.2272312674e-02	2.5357239343e-03	2.3828347527e-23	-3.4485838716e-23	5.0692399730e-23	-9.1396388511e-24	5.9832038581e-23
5.01205           	-1.8889327066e-02	-9.4446635331e-03	-9.4446635331e-03	1.2964494099e-01	6.7358840770e-02	6.2286100220e-02	2.5363702748e-03	1.5688642861e-24	-2.1054269971e-23	-1.1813530488e-23	-2.6961035215e-23	1.5147504727e-23
5.01292           	-1.8871147345e-02	-9.4355736723e-03	-9.4355736723e-03	1.2976778789e-01	6.7433642029e-02	6.2334145859e-02	2.5497480853e-03	-6.1974022962e-24	2.0223141382e-23	-1.1830054124e-23	1.4308114320e-23	-2.6138168444e-23
5.01378           	-1.8798947544e-02	-9.3994737721e-03	-9.3994737721e-03	1.2984558305e-01	6.7484147387e-02	6.2361435660e-02	2.5613558635e-03	2.1467762037e-23	-4.9886267824e-23	1.9435049357e-23	-4.0168743146e-23	5.9603792503e-23
5.01464           	-1.8561312625e-02	-9.2806563127e-03	-9.2806563127e-03	1.2988110337e-01	6.7471480931e-02	6.2409622442e-02	2.5309292445e-03	3.8547852643e-23	-4.0722137814e-23	1.0117248677e-22	9.8641055718e-24	9.1308381199e-23
5.01551           	-1.8630184176e-02	-9.3150920878e-03	-9.3150920878e-03	1.2991799714e-01	6.7515106767e-02	6.2402890372e-02	2.5561081974e-03	4.2618104787e-23	-3.0989655148e-23	1.2749518606e-22	3.2757937880e-23	9.4737248177e-23
5.01637           	-1.8629313352e-02	-9.3146566759e-03	-9.3146566759e-03	1.3000483610e-01	6.7574846072e-02	6.2429990023e-02	2.5724280242e-03	-5.3549741463e-23	5.9784296093e-23	-1.4190082244e-22	-1.1166115128e-23	-1.3073470731e-22
5.01723           	-1.8823401579e-02	-9.4117007895e-03	-9.4117007895e-03	1.3087585099e-01	6.7983831472e-02	6.2892019520e-02	2.5459059759e-03	-4.3300556570e-24	6.0353656163e-24	-9.1834454419e-24	1.4436428954e-24	-1.0627088337e-23
5.01809           	-1.8601714403e-02	-9.3008572013e-03	-9.3008572013e-03	1.3042556367e-01	6.7783313353e-02	6.2642250314e-02	2.5705315192e-03	-4.2136478071e-23	4.2748495591e-23	-1.1673272021e-22	-1.5617864515e-23	-1.0111485570e-22
5.01896           	-1.8737077544e-02	-9.3685387718e-03	-9.3685387718e-03	1.3094530143e-01	6.8067071430e-02	6.2878229995e-02	2.5944207175e-03	2.6112759142e-23	-5.2565924479e-24	9.2790831089e-23	4.1138823097e-23	5.1652007993e-23
5.01982           	-1.9014908781e-02	-9.5074543903e-03	-9.5074543903e-03	1.3182885976e-01	6.8517589601e-02	6.3311270154e-02	2.6031597238e-03	4.4526110512e-23	-3.3479159623e-23	1.3688118234e-22	3.4961431545e-23	1.0191975079e-22
5.02068           	-1.8984836268e-02	-9.4924181342e-03	-9.4924181342e-03	1.3165207902e-01	6.8469877256e-02	6.3182201760e-02	2.6438377479e-03	-2.0011259900e-23	2.4747401765e-24	-5.7840447481e-23	-2.6445483564e-23	-3.1394963917e-23
5.02155           	-1.9020728658e-02	-9.5103643292e-03	-9.5103643292e-03	1.3193326163e-01	6.8624824851e-02	6.3308436783e-02	2.6581940343e-03	1.8528486816e-23	3.2937110310e-24	9.2852222385e-23	4.9719822223e-23	4.3132400161e-23
5.02241           	-1.8939683358e-02	-9.4698416790e-03	-9.4698416790e-03	1.3186307780e-01	6.8597004401e-02	6.3266073402e-02	2.6654654994e-03	-1.3361752897e-23	2.7250476958e-23	-2.8504271635e-23	1.2998341140e-23	-4.1502612776e-23
5.02327           	-1.8796878525e-02	-9.3984392625e-03	-9.3984392625e-03	1.3188954232e-01	6.8594132312e-02	6.3295410006e-02	2.6493611533e-03	-9.0357721297e-24	2.2307466962e-23	-1.7029663133e-23	1.3792635395e-23	-3.0822298528e-23
5.02414           	-1.8650897566e-02	-9.3254487830e-03	-9.3254487830e-03	1.3164872343e-01	6.8482512284e-02	6.3166211144e-02	2.6581505701e-03	-4.3154588130e-24	1.8991674079e-23	-1.3284835714e-24	1.8327432293e-23	-1.9655915864e-23
5.025             	-1.8676580989e-02	-9.3382904945e-03	-9.3382904945e-03	1.3195414680e-01	6.8644343186e-02	6.3309803611e-02	2.6672697877e-03	-2.5274155209e-23	5.6828486972e-23	-4.0933694706e-23	3.6361639619e-23	-7.7295334326e-23
5.02586           	-1.8524445256e-02	-9.2622226280e-03	-9.2622226280e-03	1.3209201432e-01	6.8693397386e-02	6.3398616937e-02	2.6473902248e-03	-6.1864085953e-24	-1.7303307559e-23	-5.5056591545e-23	-4.4831603331e-23	-1.0224988214e-23
5.02673           	-1.8569884548e-02	-9.2849422740e-03	-9.2849422740e-03	1.3224247305e-01	6.8790839373e-02	6.3451633673e-02	2.6696028498e-03	-2.7714876374e-23	3.2698030259e-23	-5.7341453899e-23	4.0273033092e-24	-6.1368757208e-23
5.02759           	-1.8275347512e-02	-9.1376737560e-03	-9.1376737560e-03	1.3191245081e-01	6.8613143633e-02	6.3299307174e-02	2.6569182299e-03	2.4492518418e-23	-5.3120912926e-24	6.6202398024e-23	2.7789107719e-23	3.8413290305e-23
5.02845           	-1.8539867846e-02	-9.2699339231e-03	-9.2699339231e-03	1.3260843677e-01	6.8984860409e-02	6.3623576366e-02	2.6806420216e-03	-5.1690773790e-24	6.4473698563e-24	-2.0336014615e-23	-3.7206374512e-24	-1.6615377164e-23
5.02931           	-1.8540909191e-02	-9.2704545957e-03	-9.2704545957e-03	1.3275367193e-01	6.9078603500e-02	6.3675068429e-02	2.7017675358e-03	4.2960135291e-23	-2.3544365510e-23	1.3145045342e-22	4.2180861199e-23	8.9269592219e-23
5.03018           	-1.8514100324e-02	-9.2570501621e-03	-9.2570501621e-03	1.3295226857e-01	6.9172102701e-02	6.3780165868e-02	2.6959684165e-03	1.1499742103e-23	-1.0057017419e-23	2.5360098391e-23	2.6230317765e-24	2.2737066614e-23
5.03104           	-1.8482446583e-02	-9.2412232914e-03	-9.2412232914e-03	1.3293886841e-01	6.9176739458e-02	6.3762128950e-02	2.7073052540e-03	5.8640180584e-24	1.7710359895e-23	4.2086094828e-23	3.8753407309e-23	3.3326875191e-24
5.0319            	-1.8788831257e-02	-9.3944156287e-03	-9.3944156287e-03	1.3380930081e-01	6.9637220213e-02	6.4172080593e-02	2.7325698103e-03	2.5539305701e-23	-2.8539104982e-23	5.2628984835e-23	-2.2246125648e-24	5.4853597400e-23
5.03277           	-1.8868917772e-02	-9.4344588859e-03	-9.4344588859e-03	1.3495452848e-01	7.0118898757e-02	6.4835629719e-02	2.6416345193e-03	-2.4791266220e-24	4.6717103830e-23	5.1209144330e-23	7.2321675995e-23	-2.1112531665e-23
5.03363           	-1.8611617560e-02	-9.3058087802e-03	-9.3058087802e-03	1.3432345291e-01	6.9851539291e-02	6.4471913617e-02	2.6898128374e-03	-4.3561886892e-23	2.6763876724e-23	-1.3474597523e-22	-4.0609110890e-23	-9.4136864337e-23
5.03449           	-1.8502812837e-02	-9.2514064184e-03	-9.2514064184e-03	1.3404229285e-01	6.9709578382e-02	6.4332714467e-02	2.6884319576e-03	5.5996021899e-24	-1.2570426978e-23	3.1454371301e-24	-1.0997708413e-23	1.4143145543e-23
5.03536           	-1.8615882761e-02	-9.3079413807e-03	-9.3079413807e-03	1.3457541126e-01	6.9999631943e-02	6.4575779314e-02	2.7119263146e-03	1.0334827342e-23	-1.1911430412e-23	4.2171381904e-23	9.1742605398e-24	3.2997121364e-23
5.03622           	-1.8567706991e-02	-9.2838534954e-03	-9.2838534954e-03	1.3487243646e-01	7.0140132873e-02	6.4732303592e-02	2.7039146404e-03	2.0516296811e-23	-4.3514336399e-25	9.0951587296e-23	4.5040650284e-23	4.5910937012e-23
5.03708           	-1.8435637861e-02	-9.2178189304e-03	-9.2178189304e-03	1.3464453914e-01	7.0032952410e-02	6.4611586733e-02	2.7106828385e-03	4.0164647509e-24	-1.6049029760e-23	6.0783718440e-24	-1.3009843838e-23	1.9088215682e-23
5.03795           	-1.8372027072e-02	-9.1860135362e-03	-9.1860135362e-03	1.3470386108e-01	7.0061917362e-02	6.4641943713e-02	2.7099868246e-03	-4.7661569214e-23	3.4664751627e-24	-1.6665736711e-22	-7.9862208390e-23	-8.6795158715e-23
5.03881           	-1.8360137222e-02	-9.1800686109e-03	-9.1800686109e-03	1.3492943269e-01	7.0178682144e-02	6.4750750544e-02	2.7139657997e-03	2.1722337678e-23	1.5909063895e-23	7.9060713720e-23	5.5439420755e-23	2.3621292965e-23
5.03967           	-1.8302565266e-02	-9.1512826330e-03	-9.1512826330e-03	1.3496467971e-01	7.0211666729e-02	6.4753012981e-02	2.7293268738e-03	1.8387213638e-23	-1.8159048587e-23	5.0259897627e-23	6.9709002268e-24	4.3288997400e-23
5.04053           	-1.8184328785e-02	-9.0921643927e-03	-9.0921643927e-03	1.3461552879e-01	7.0053943602e-02	6.4561585186e-02	2.7461792079e-03	-2.8694985235e-23	-4.8533320744e-25	-1.2024549087e-22	-6.0608078641e-23	-5.9637412226e-23
5.0414            	-1.8248330562e-02	-9.1241652810e-03	-9.1241652810e-03	1.3488020661e-01	7.0196349223e-02	6.4683857385e-02	2.7562459189e-03	-1.8971241486e-24	1.0699252616e-23	-3.8762112490e-24	8.7611469918e-24	-1.2637358241e-23
5.04226           	-1.8165120825e-02	-9.0825604126e-03	-9.0825604126e-03	1.3491205988e-01	7.0219628115e-02	6.4692431765e-02	2.7635981751e-03	-1.4057268513e-23	6.3261914515e-24	-4.4037002797e-23	-1.5692309947e-23	-2.8344692850e-23
5.04312           	-1.8104668409e-02	-9.0523342044e-03	-9.0523342044e-03	1.3481569514e-01	7.0192099887e-02	6.4623595254e-02	2.7842523168e-03	2.0115571118e-23	-1.5729210855e-23	4.6478156074e-23	7.5098671825e-24	3.8968288892e-23
5.04399           	-1.8328169916e-02	-9.1640849578e-03	-9.1640849578e-03	1.3584447054e-01	7.0704328558e-02	6.5140141986e-02	2.7820932858e-03	-1.9281854830e-23	3.6261568716e-23	-3.7039561263e-23	1.7741788085e-23	-5.4781349348e-23
5.04485           	-1.8041903519e-02	-9.0209517595e-03	-9.0209517595e-03	1.3543786251e-01	7.0486520081e-02	6.4951342428e-02	2.7675888266e-03	-8.5623689847e-24	4.9118265756e-23	2.9062592431e-24	5.0571395378e-23	-4.7665136135e-23
5.04571           	-1.7934384996e-02	-8.9671924981e-03	-8.9671924981e-03	1.3586865813e-01	7.0653440499e-02	6.5215217628e-02	2.7191114353e-03	-4.0029691919e-23	3.7355447887e-23	-1.2297537945e-22	-2.4132241837e-23	-9.8843137612e-23
5.04658           	-1.7935201294e-02	-8.9676006470e-03	-8.9676006470e-03	1.3614975839e-01	7.0802248285e-02	6.5347510100e-02	2.7273690927e-03	2.0104804700e-23	-1.7283636828e-23	5.5343079752e-23	1.0387903048e-23	4.4955176705e-23
5.04744           	-1.7952237837e-02	-8.9761189183e-03	-8.9761189183e-03	1.3616573101e-01	7.0826179930e-02	6.5339551075e-02	2.7433144273e-03	2.1975685131e-23	-1.4808328459e-23	5.6261503314e-23	1.3322423198e-23	4.2939080116e-23
5.0483            	-1.8137530418e-02	-9.0687652091e-03	-9.0687652091e-03	1.3683918572e-01	7.1181828305e-02	6.5657357415e-02	2.7622354450e-03	-2.8523152096e-23	6.4641855300e-23	-2.9504009101e-23	4.9889850750e-23	-7.9393859851e-23
5.04916           	-1.7891587172e-02	-8.9457935860e-03	-8.9457935860e-03	1.3620311880e-01	7.0878718982e-02	6.5324399821e-02	2.7771595804e-03	-2.3365790266e-24	-1.2501948319e-23	-3.1413135385e-23	-2.8208516011e-23	-3.2046193732e-24
5.05003           	-1.8004769106e-02	-9.0023845532e-03	-9.0023845532e-03	1.3705300005e-01	7.1281673048e-02	6.5771326999e-02	2.7551730247e-03	-3.1688446973e-24	-2.6983929965e-24	-2.3868395889e-23	-1.4632590941e-23	-9.2358049481e-24
5.05089           	-1.8129835929e-02	-9.0649179644e-03	-9.0649179644e-03	1.3814450098e-01	7.1770805149e-02	6.6373695827e-02	2.6985546608e-03	6.0683994100e-24	-4.5743949015e-24	2.7002777906e-23	8.9269940516e-24	1.8075783855e-23
5.05175           	-1.7917997127e-02	-8.9589985636e-03	-8.9589985636e-03	1.3733042419e-01	7.1423474414e-02	6.5906949780e-02	2.7582623168e-03	3.8785860666e-24	3.3483038091e-23	5.2012331988e-23	5.9489204085e-23	-7.4768720969e-24
5.05262           	-1.8083693417e-02	-9.0418467084e-03	-9.0418467084e-03	1.3780136039e-01	7.1669061630e-02	6.6132298757e-02	2.7683814362e-03	-1.9316494144e-24	5.9934359001e-24	3.5822790955e-24	7.7845754479e-24	-4.2022963524e-24
5.05348           	-1.7995090687e-02	-8.9975453436e-03	-8.9975453436e-03	1.3790890427e-01	7.1710473660e-02	6.6198430613e-02	2.7560215236e-03	8.5925963729e-24	-3.7012778559e-23	-5.9976819115e-24	-4.0011619515e-23	3.4013937603e-23
5.05434           	-1.7785323752e-02	-8.8926618758e-03	-8.8926618758e-03	1.3760096499e-01	7.1560993015e-02	6.6039971977e-02	2.7605105190e-03	-6.4905378138e-24	1.4132280590e-23	-3.5825117562e-24	1.2341024711e-23	-1.5923536468e-23
5.05521           	-1.7665479223e-02	-8.8327396116e-03	-8.8327396116e-03	1.3771657456e-01	7.1592591381e-02	6.6123983175e-02	2.7343041031e-03	-1.0177000802e-23	5.9402132713e-24	-9.3374495608e-24	1.2714884909e-24	-1.0608938052e-23
5.05607           	-1.7783242510e-02	-8.8916212548e-03	-8.8916212548e-03	1.3818540118e-01	7.1852531556e-02	6.6332869624e-02	2.7598309662e-03	3.7279043565e-23	4.6559874415e-24	1.2651440614e-22	6.7913190512e-23	5.8601215629e-23
5.05693           	-1.7865925980e-02	-8.9329629900e-03	-8.9329629900e-03	1.3957892220e-01	7.2462938702e-02	6.7115983497e-02	2.6734776026e-03	-5.9499807115e-25	6.5893771256e-24	9.9156674042e-24	1.1547210828e-23	-1.6315434235e-24
5.0578            	-1.7547381824e-02	-8.7736909119e-03	-8.7736909119e-03	1.3818916627e-01	7.1842264213e-02	6.6346902059e-02	2.7476810772e-03	2.5410738533e-23	-1.6643055116e-23	7.6745493697e-23	2.1729691733e-23	5.5015801964e-23
5.05866           	-1.7572504937e-02	-8.7862524684e-03	-8.7862524684e-03	1.3834281743e-01	7.1933563338e-02	6.6409254097e-02	2.7621546208e-03	2.7634279623e-23	-4.1805802933e-23	6.9604421029e-23	-7.0035924184e-24	7.6608013447e-23
5.05952           	-1.7694109162e-02	-8.8470545808e-03	-8.8470545808e-03	1.3884221833e-01	7.2189997288e-02	6.6652221047e-02	2.7688881206e-03	5.0794023895e-23	1.7260251134e-23	1.7957382031e-22	1.0704716129e-22	7.2526659019e-23
5.06038           	-1.7603437691e-02	-8.8017188456e-03	-8.8017188456e-03	1.3884592968e-01	7.2189137597e-02	6.6656792084e-02	2.7661727566e-03	-4.9254137750e-23	2.5395300565e-23	-1.4473150379e-22	-4.6970451331e-23	-9.7761052462e-23
5.06125           	-1.7824814076e-02	-8.9124070382e-03	-8.9124070382e-03	1.4035404380e-01	7.2873383725e-02	6.7480660079e-02	2.6963618230e-03	-2.1097313327e-23	1.7126332370e-24	-7.1803457651e-23	-3.4189095589e-23	-3.7614362063e-23
5.06211           	-1.7114782353e-02	-8.5573911764e-03	-8.5573911764e-03	1.3804325947e-01	7.1788623777e-02	6.6254635691e-02	2.7669940427e-03	-4.7096516312e-24	2.6712379254e-25	-1.8600026809e-23	-9.0328896118e-24	-9.5671371969e-24
5.06297           	-1.7463854005e-02	-8.7319270025e-03	-8.7319270025e-03	1.3914017479e-01	7.2343237714e-02	6.6796937072e-02	2.7731503209e-03	-1.7541263902e-23	2.9665394438e-23	-3.9338644990e-23	9.9960719435e-24	-4.9334716933e-23
5.06384           	-1.7336505787e-02	-8.6682528933e-03	-8.6682528933e-03	1.3861022616e-01	7.2119188544e-02	6.6491037612e-02	2.8140754659e-03	4.7245965827e-23	-1.8452822045e-23	1.2385832012e-22	4.3476338015e-23	8.0381982105e-23
5.0647            	-1.7228526605e-02	-8.6142633024e-03	-8.6142633024e-03	1.3886656615e-01	7.2212248363e-02	6.6654317792e-02	2.7789652856e-03	-2.9674145684e-23	2.3697607092e-23	-8.4493211277e-23	-1.8548998547e-23	-6.5944212731e-23
5.06556           	-1.7347815680e-02	-8.6739078401e-03	-8.6739078401e-03	1.3946515005e-01	7.2508172705e-02	6.6956977348e-02	2.7755976785e-03	-3.8301400239e-24	4.3811536308e-25	-1.4066643718e-23	-6.5952064959e-24	-7.4714372220e-24
5.06643           	-1.7428460474e-02	-8.7142302372e-03	-8.7142302372e-03	1.4023070407e-01	7.2857317288e-02	6.7373386778e-02	2.7419652551e-03	-5.1947696595e-23	3.8839994230e-23	-1.4388702812e-22	-3.3103519828e-23	-1.1078350829e-22
5.06729           	-1.7339904178e-02	-8.6699520890e-03	-8.6699520890e-03	1.3938230200e-01	7.2422541769e-02	6.6959760233e-02	2.7313907680e-03	-3.2258111946e-23	3.6538414772e-23	-1.0030928594e-22	-1.3616228199e-23	-8.6693057744e-23
5.06815           	-1.7078094165e-02	-8.5390470823e-03	-8.5390470823e-03	1.4063323714e-01	7.3101402136e-02	6.7531834999e-02	2.7847835685e-03	3.2972778496e-24	7.4156371680e-24	1.2131049002e-23	1.3481161669e-23	-1.3501126672e-24
5.06902           	-1.7207367959e-02	-8.6036839797e-03	-8.6036839797e-03	1.4024654134e-01	7.2890338394e-02	6.7356202945e-02	2.7670677248e-03	4.3471958103e-23	-5.2527642154e-23	8.7331676449e-23	-8.8618039291e-24	9.6193480378e-23
5.06989           	-1.7147454486e-02	-8.5737272429e-03	-8.5737272429e-03	1.4023035559e-01	7.2882768200e-02	6.7347587388e-02	2.7675904058e-03	-2.4832029145e-24	-4.8638338210e-23	-3.9355418087e-23	-6.8316047253e-23	2.8960629166e-23
5.07075           	-1.7251362460e-02	-8.6256812300e-03	-8.6256812300e-03	1.4070805282e-01	7.3136842767e-02	6.7571210055e-02	2.7828163563e-03	3.4691211574e-23	-2.5895638748e-23	9.3650529545e-23	2.0929626025e-23	7.2720903520e-23
5.07162           	-1.7191219054e-02	-8.5956095270e-03	-8.5956095270e-03	1.4086682573e-01	7.3209230475e-02	6.7657595260e-02	2.7758176071e-03	1.0452813114e-23	-2.5764255791e-23	4.3903513054e-24	-2.3569080139e-23	2.7959431444e-23
5.07248           	-1.7100260209e-02	-8.5501301043e-03	-8.5501301043e-03	1.4083349170e-01	7.3203927234e-02	6.7629564470e-02	2.7871813819e-03	3.3208980394e-24	9.7948605960e-24	1.9275796144e-23	1.9432758668e-23	-1.5696252394e-25
5.07335           	-1.7069059841e-02	-8.5345299203e-03	-8.5345299203e-03	1.4133724053e-01	7.3398513425e-02	6.7938727108e-02	2.7298931585e-03	8.9170991977e-24	-1.3348560491e-23	2.8787003785e-23	1.0449414022e-24	2.7742062383e-23
5.07421           	-1.7321652419e-02	-8.6608262093e-03	-8.6608262093e-03	1.4318116839e-01	7.4248152755e-02	6.8933015631e-02	2.6575685623e-03	-1.8697029074e-23	2.5998934668e-23	-4.6545676098e-23	2.7260966185e-24	-4.9271772717e-23
5.07508           	-1.7032713579e-02	-8.5163567894e-03	-8.5163567894e-03	1.4145624502e-01	7.3509938518e-02	6.7946306500e-02	2.7818160089e-03	1.4828424616e-23	-2.6809260622e-23	2.5116996217e-23	-1.4250762514e-23	3.9367758731e-23
5.07594           	-1.7054995228e-02	-8.5274976139e-03	-8.5274976139e-03	1.4178789686e-01	7.3657341455e-02	6.8130555405e-02	2.7633930251e-03	-1.0752154259e-23	8.4188828901e-24	-3.2508175625e-23	-7.8352049224e-24	-2.4672970703e-23
5.07681           	-1.6950599817e-02	-8.4752999084e-03	-8.4752999084e-03	1.4187867705e-01	7.3683922255e-02	6.8194754794e-02	2.7445837309e-03	-1.1417676366e-23	-6.8832972961e-24	-4.4484554642e-23	-2.9125574617e-23	-1.5358980025e-23
5.07767           	-1.6821332108e-02	-8.4106660540e-03	-8.4106660540e-03	1.4181267458e-01	7.3653330169e-02	6.8159344406e-02	2.7469928814e-03	1.8171519837e-23	3.5499825823e-24	5.2647908576e-23	2.9873936870e-23	2.2773971706e-23
5.07854           	-1.6859404953e-02	-8.4297024765e-03	-8.4297024765e-03	1.4212275386e-01	7.3815898569e-02	6.8306855290e-02	2.7545216397e-03	-8.7213288788e-26	7.7494365709e-24	4.2357503794e-24	9.8673117606e-24	-5.6315613812e-24
5.0794            	-1.6882426353e-02	-8.4412131766e-03	-8.4412131766e-03	1.4276369471e-01	7.4103755557e-02	6.8659939153e-02	2.7219082019e-03	1.2684278125e-23	-1.3158581471e-23	2.7761246559e-23	7.2204180830e-25	2.7039204750e-23
5.08027           	-1.6831699558e-02	-8.4158497790e-03	-8.4158497790e-03	1.4280197406e-01	7.4126932852e-02	6.8675041203e-02	2.7259458243e-03	7.5932975413e-23	-5.0330889588e-23	1.9581589516e-22	4.7577057994e-23	1.4823883717e-22
5.08114           	-1.6707024876e-02	-8.3535124379e-03	-8.3535124379e-03	1.4247472233e-01	7.3979584007e-02	6.8495138320e-02	2.7422228435e-03	-5.8720646130e-24	1.6407019247e-23	-6.3113867152e-24	1.3251325889e-23	-1.9562712605e-23
5.082             	-1.6601211208e-02	-8.3006056041e-03	-8.3006056041e-03	1.4244801826e-01	7.3947184653e-02	6.8500833611e-02	2.7231755211e-03	4.0324708639e-23	-3.6225890532e-23	9.7296195608e-23	1.2422207272e-23	8.4873988337e-23
5.08287           	-1.6542015999e-02	-8.2710079996e-03	-8.2710079996e-03	1.4279980581e-01	7.4093924798e-02	6.8705881009e-02	2.6940218947e-03	-3.7961824562e-23	-1.1114386192e-23	-1.2764377390e-22	-7.4936273142e-23	-5.2707500759e-23
5.08373           	-1.6446429680e-02	-8.2232148402e-03	-8.2232148402e-03	1.4238056807e-01	7.3930181357e-02	6.8450386713e-02	2.7398973220e-03	-2.2567449160e-23	2.9290164691e-23	-5.3339443759e-23	2.6204428110e-24	-5.5959886570e-23
5.0846            	-1.6448520220e-02	-8.2242601102e-03	-8.2242601102e-03	1.4318138726e-01	7.4281885557e-02	6.8899501701e-02	2.6911919276e-03	2.1001516426e-23	-1.1230314234e-23	5.3441439804e-23	1.5490405668e-23	3.7951034136e-23
5.08546           	-1.6423749624e-02	-8.2118748122e-03	-8.2118748122e-03	1.4301515142e-01	7.4230752025e-02	6.8784399398e-02	2.7231763134e-03	1.0327481097e-23	-2.8849269346e-23	5.4995674832e-24	-2.6099485604e-23	3.1599053088e-23
5.08633           	-1.6352949594e-02	-8.1764747971e-03	-8.1764747971e-03	1.4320066064e-01	7.4301208124e-02	6.8899452512e-02	2.7008778061e-03	3.5569028147e-23	-2.7522965280e-23	8.5204477904e-23	1.5079273672e-23	7.0125204232e-23
5.08719           	-1.6437534636e-02	-8.2187673182e-03	-8.2187673182e-03	1.4371630957e-01	7.4555489403e-02	6.9160820170e-02	2.6973346164e-03	-2.7421549584e-24	1.9888422047e-23	2.2289959493e-23	3.1033401793e-23	-8.7434423009e-24
5.08806           	-1.6320481188e-02	-8.1602405940e-03	-8.1602405940e-03	1.4351865913e-01	7.4461619814e-02	6.9057039317e-02	2.7022902483e-03	2.0518284364e-23	-7.5275812069e-24	6.4156959900e-23	2.4550898743e-23	3.9606061157e-23
5.08892           	-1.6361253350e-02	-8.1806266751e-03	-8.1806266751e-03	1.4394109697e-01	7.4669269681e-02	6.9271827290e-02	2.6987211958e-03	4.2596150715e-23	-3.7801262276e-23	8.6733700738e-23	5.5655880927e-24	8.1168112645e-23
5.08979           	-1.6289437376e-02	-8.1447186882e-03	-8.1447186882e-03	1.4381615675e-01	7.4617385407e-02	6.9198771340e-02	2.7093070334e-03	-2.0039222360e-25	9.2658081308e-24	4.7782080339e-24	1.1654912148e-23	-6.8767041139e-24
5.09065           	-1.6131765325e-02	-8.0658826623e-03	-8.0658826623e-03	1.4386931041e-01	7.4602650309e-02	6.9266660106e-02	2.6679951015e-03	-2.1381460330e-23	4.8522549923e-23	-2.9628018011e-23	3.3708540917e-23	-6.3336558928e-23
5.09152           	-1.6048287766e-02	-8.0241438829e-03	-8.0241438829e-03	1.4389832641e-01	7.4609743775e-02	6.9288582631e-02	2.6605805720e-03	1.1396455990e-23	-1.6166883224e-23	2.6409024334e-23	-2.9623710569e-24	2.9371395391e-23
5.09238           	-1.6038456225e-02	-8.0192281124e-03	-8.0192281124e-03	1.4394243603e-01	7.4646678527e-02	6.9295757499e-02	2.6754605138e-03	4.8758903642e-23	-5.8355337204e-23	1.1493425307e-22	-8.8821066720e-25	1.1582246374e-22
5.09325           	-1.5976879173e-02	-7.9884395865e-03	-7.9884395865e-03	1.4426436528e-01	7.4788210730e-02	6.9476154547e-02	2.6560280915e-03	-3.7548298087e-23	3.5468657573e-24	-1.2042869719e-22	-5.6667482837e-23	-6.3761214351e-23
5.09412           	-1.5945393613e-02	-7.9726968063e-03	-7.9726968063e-03	1.4462495025e-01	7.4952571608e-02	6.9672378640e-02	2.6400964839e-03	4.8601849409e-23	-9.9227869809e-24	1.3265968440e-22	5.6407055220e-23	7.6252629182e-23
5.09498           	-1.5847035763e-02	-7.9235178817e-03	-7.9235178817e-03	1.4453310281e-01	7.4919978402e-02	6.9613124409e-02	2.6534269965e-03	-8.0283291185e-23	4.5724120830e-23	-2.2319538506e-22	-6.5873571700e-23	-1.5732181336e-22
5.09585           	-1.5909707132e-02	-7.9548535661e-03	-7.9548535661e-03	1.4563027154e-01	7.5390859516e-02	7.0239412028e-02	2.5757237443e-03	3.6058658987e-23	-3.2225112563e-23	8.2855074936e-23	9.2024249050e-24	7.3652650031e-23
5.09671           	-1.5620606543e-02	-7.8103032713e-03	-7.8103032713e-03	1.4460873970e-01	7.4897806189e-02	6.9710933508e-02	2.5934363404e-03	-2.2125250628e-23	2.1196234080e-23	-4.9159653949e-23	-3.3835928947e-24	-4.5776061055e-23
5.09758           	-1.5669675136e-02	-7.8348375679e-03	-7.8348375679e-03	1.4551419959e-01	7.5291141419e-02	7.0223058172e-02	2.5340416233e-03	-2.3573890032e-23	-1.2737314393e-23	-8.7528603802e-23	-5.6501616294e-23	-3.1026987508e-23
5.09844           	-1.5544880297e-02	-7.7724401483e-03	-7.7724401483e-03	1.4501557309e-01	7.5088258393e-02	6.9927314693e-02	2.5804718500e-03	2.6371357546e-23	-3.0981143847e-23	5.7793205820e-23	-2.0845409367e-24	5.9877746757e-23
5.09931           	-1.5463158446e-02	-7.7315792230e-03	-7.7315792230e-03	1.4482016353e-01	7.4994113004e-02	6.9826050524e-02	2.5840312398e-03	2.9032931413e-24	3.8831183210e-23	2.8421878621e-23	5.3042122520e-23	-2.4620243900e-23
5.10017           	-1.5496838315e-02	-7.7484191575e-03	-7.7484191575e-03	1.4507749516e-01	7.5095024035e-02	6.9982471124e-02	2.5562764558e-03	-5.6474522982e-24	-4.8883597582e-25	-9.5242219965e-24	-5.2509469741e-24	-4.2732750224e-24
5.10104           	-1.5486594997e-02	-7.7432974983e-03	-7.7432974983e-03	1.4565271875e-01	7.5397336898e-02	7.0255381850e-02	2.5709775240e-03	1.1653449466e-23	-2.5396455725e-23	2.5477768775e-23	-1.2657571337e-23	3.8135340112e-23
5.10191           	-1.5429878954e-02	-7.7149394771e-03	-7.7149394771e-03	1.4571587616e-01	7.5415172342e-02	7.0300703816e-02	2.5572342632e-03	1.2054086367e-23	-7.2320049925e-23	-5.9971459632e-24	-7.5318622906e-23	6.9321476943e-23
5.10278           	-1.5332189311e-02	-7.6660946556e-03	-7.6660946556e-03	1.4596425340e-01	7.5510457059e-02	7.0453796341e-02	2.5283303589e-03	1.5527513468e-23	-6.6890678997e-24	4.0009665785e-23	1.3315764993e-23	2.6693900792e-23
5.10365           	-1.5357682389e-02	-7.6788411945e-03	-7.6788411945e-03	1.4607318288e-01	7.5577043063e-02	7.0496139821e-02	2.5404516207e-03	4.1659390469e-23	-5.3082704892e-23	9.7651327548e-23	-4.2570411178e-24	1.0190836867e-22
5.10452           	-1.5356624404e-02	-7.6783122021e-03	-7.6783122021e-03	1.4622521340e-01	7.5663163972e-02	7.0562049426e-02	2.5505572730e-03	5.1425686197e-23	-4.7258516785e-23	1.2457394095e-22	1.5028453690e-23	1.0954548726e-22
5.10539           	-1.5155255954e-02	-7.5776279768e-03	-7.5776279768e-03	1.4610028525e-01	7.5564010154e-02	7.0536275097e-02	2.5138675283e-03	2.4997862513e-23	-3.9318425165e-23	5.7152133142e-23	-1.0742358593e-23	6.7894491736e-23
5.10626           	-1.5067429881e-02	-7.5337149405e-03	-7.5337149405e-03	1.4650467544e-01	7.5731393109e-02	7.0773282336e-02	2.4790553866e-03	7.5846901958e-23	-7.7253135085e-23	1.8200323187e-22	1.3748480852e-23	1.6825475102e-22
5.10713           	-1.5061021959e-02	-7.5305109793e-03	-7.5305109793e-03	1.4657366447e-01	7.5781633964e-02	7.0792030508e-02	2.4948017279e-03	-2.5620608302e-23	-6.8505820358e-24	-6.7346593471e-23	-4.0523878771e-23	-2.6822714700e-23
5.10801           	-1.4961600859e-02	-7.4808004297e-03	-7.4808004297e-03	1.4652884885e-01	7.5741293615e-02	7.0787555233e-02	2.4768691908e-03	-4.4391690076e-23	1.9062907583e-23	-1.1812317282e-22	-3.9998678827e-23	-7.8124493993e-23
5.10888           	-1.4811628150e-02	-7.4058140749e-03	-7.4058140749e-03	1.4637024218e-01	7.5642846355e-02	7.0727395826e-02	2.4577252648e-03	-2.5654397340e-23	7.6184360466e-23	-2.4959473696e-23	6.3704623618e-23	-8.8664097314e-23
5.10975           	-1.4928967955e-02	-7.4644839777e-03	-7.4644839777e-03	1.4740471990e-01	7.6172999732e-02	7.1231720171e-02	2.4706397805e-03	-4.4999163461e-23	1.6689666826e-23	-1.2318339400e-22	-4.4902030174e-23	-7.8281363826e-23