# Force           
# CofR            : (0.0000000000e+00 0.0000000000e+00 0.0000000000e+00)
#
# Time            	total_x total_y total_z	pressure_x pressure_y pressure_z	viscous_x viscous_y viscous_z
5.00086            -5.3622528725e+00 1.6012633286e+01 -6.8421225983e-21 -5.5079232031e+00 1.5928587371e+01 -6.7885555528e-21 1.4567033069e-01 8.4045914933e-02 -5.3567045512e-23
5.00947            -5.4187353620e+00 1.6259102080e+01 -7.2459492254e-21 -5.5643195304e+00 1.6176135757e+01 -7.2899801154e-21 1.4558416840e-01 8.2966322537e-02 4.4030890060e-23
5.01809            -5.3487070563e+00 1.6347996480e+01 1.5240682317e-20 -5.4942371132e+00 1.6266129924e+01 1.5271432197e-20 1.4553005686e-01 8.1866555398e-02 -3.0749879712e-23
5.02673            -5.3858066888e+00 1.6582330859e+01 7.4865288918e-21 -5.5312345647e+00 1.6501606289e+01 7.4508342372e-21 1.4542787590e-01 8.0724569606e-02 3.5694654612e-23
5.03536            -5.4446124128e+00 1.6881250188e+01 -5.5059167070e-21 -5.5899404342e+00 1.6801684376e+01 -5.4917301972e-21 1.4532802140e-01 7.9565812021e-02 -1.4186509822e-23
5.04399            -5.4363907484e+00 1.7050944922e+01 4.8359036382e-21 -5.5816060987e+00 1.6972561872e+01 4.8816926032e-21 1.4521535032e-01 7.8383050357e-02 -4.5788964969e-23
5.05262            -5.4493224939e+00 1.7308098606e+01 -4.6770414984e-22 -5.5944392247e+00 1.7230901078e+01 -4.4551064555e-22 1.4511673079e-01 7.7197527130e-02 -2.2193504293e-23
5.06125            -5.4739099513e+00 1.7642184170e+01 9.3746953327e-21 -5.6189182716e+00 1.7566188241e+01 9.3712383881e-21 1.4500832028e-01 7.5995929093e-02 3.4569445214e-24
5.06989            -5.3840128834e+00 1.7641637529e+01 5.1382630631e-21 -5.5288878252e+00 1.7566877151e+01 5.1345462313e-21 1.4487494176e-01 7.4760378014e-02 3.7168317888e-24
5.07854            -5.3898800129e+00 1.7891486949e+01 -5.5302168742e-22 -5.5345954599e+00 1.7817976209e+01 -5.5567735056e-22 1.4471544699e-01 7.3510739760e-02 2.6556631484e-24
5.08719            -5.3717656332e+00 1.8105946022e+01 -2.9101882563e-21 -5.5163108737e+00 1.8033701833e+01 -2.9060846120e-21 1.4454524045e-01 7.2244188459e-02 -4.1036443301e-24
5.09585            -5.3472917154e+00 1.8364004185e+01 -1.0817600011e-20 -5.4916420182e+00 1.8293046331e+01 -1.0812394189e-20 1.4435030283e-01 7.0957854635e-02 -5.2058224726e-24
5.10452            -5.2896662771e+00 1.8453039284e+01 -1.6264436017e-20 -5.4338325599e+00 1.8383372541e+01 -1.6262433206e-20 1.4416628284e-01 6.9666742456e-02 -2.0028116253e-24
5.11324            -5.2052755115e+00 1.8575663964e+01 1.1420932135e-20 -5.3492424489e+00 1.8507309374e+01 1.1437206352e-20 1.4396693742e-01 6.8354589301e-02 -1.6274216779e-23
5.12198            -5.2093345181e+00 1.8901045330e+01 1.2203295188e-20 -5.3531099889e+00 1.8834011276e+01 1.2198905428e-20 1.4377547083e-01 6.7034054211e-02 4.3897591491e-24
5.13074            -5.1138494116e+00 1.9003425504e+01 5.4845270138e-21 -5.2574246011e+00 1.8937727676e+01 5.4808672346e-21 1.4357518959e-01 6.5697828271e-02 3.6597791574e-24
5.13954            -5.0745358191e+00 1.9188717631e+01 -5.7703096037e-21 -5.2178772093e+00 1.9124380135e+01 -5.7556133141e-21 1.4334139020e-01 6.4337496032e-02 -1.4696289530e-23
5.14839            -4.9955669486e+00 1.9370883450e+01 -9.2378040216e-21 -5.1386560682e+00 1.9307928410e+01 -9.2436299790e-21 1.4308911961e-01 6.2955039639e-02 5.8259573743e-24
5.15727            -4.9106353388e+00 1.9527084602e+01 -5.5909682187e-21 -5.0534871366e+00 1.9465513396e+01 -5.5485030074e-21 1.4285179778e-01 6.1571205807e-02 -4.2465211262e-23
5.16621            -4.8112812553e+00 1.9643054041e+01 3.3637179183e-22 -4.9538755844e+00 1.9582885448e+01 3.2452929889e-22 1.4259432912e-01 6.0168593149e-02 1.1842492942e-23
5.1752             -4.7228676651e+00 1.9777087833e+01 -7.0373811754e-21 -4.8651951550e+00 1.9718337019e+01 -7.0263575970e-21 1.4232748994e-01 5.8750813658e-02 -1.1023578413e-23
5.18425            -4.6759731773e+00 2.0012421441e+01 8.0209160481e-21 -4.8180017403e+00 1.9955113505e+01 8.0189896267e-21 1.4202856296e-01 5.7307935920e-02 1.9264213439e-24
5.19335            -4.5490504984e+00 2.0117646741e+01 -7.5369942388e-21 -4.6907324592e+00 2.0061809621e+01 -7.5497937558e-21 1.4168196082e-01 5.5837120629e-02 1.2799517032e-23
5.20249            -4.5109310194e+00 2.0452862655e+01 -1.0344746770e-21 -4.6522968499e+00 2.0398488319e+01 -1.0376166956e-21 1.4136583057e-01 5.4374336053e-02 3.1420185791e-24
5.21176            -4.3136405204e+00 2.0363289283e+01 -3.6771374908e-21 -4.4546521022e+00 2.0310425258e+01 -3.6844764124e-21 1.4101158179e-01 5.2864024995e-02 7.3389215873e-24
5.22112            -4.2268065514e+00 2.0593024479e+01 -5.3099065978e-21 -4.3674575638e+00 2.0541685571e+01 -5.3306369588e-21 1.4065101237e-01 5.1338908398e-02 2.0730361063e-23
5.23051            -4.0642946811e+00 2.0620974576e+01 2.4378836830e-21 -4.2045646720e+00 2.0571154368e+01 2.4416501906e-21 1.4026999088e-01 4.9820208644e-02 -3.7665075735e-24
5.2399             -3.9221045742e+00 2.0701233371e+01 -1.5692930760e-20 -4.0620068949e+00 2.0652943811e+01 -1.5708169081e-20 1.3990232065e-01 4.8289560066e-02 1.5238321619e-23
5.24928            -3.7843554941e+00 2.0846099693e+01 8.3967904103e-21 -3.9239229996e+00 2.0799273646e+01 8.4391252457e-21 1.3956750551e-01 4.6826047580e-02 -4.2334835387e-23
5.25865            -3.6425145157e+00 2.0997798527e+01 1.5893933545e-21 -3.7817149690e+00 2.0952460523e+01 1.5737407794e-21 1.3920045328e-01 4.5338003485e-02 1.5652575090e-23
5.26801            -3.4832814887e+00 2.0899641750e+01 -1.0843025131e-20 -3.6221028812e+00 2.0855818458e+01 -1.0851497141e-20 1.3882139246e-01 4.3823291694e-02 8.4720098212e-24
5.27736            -3.3198066733e+00 2.0922698607e+01 -5.8216560573e-22 -3.4582062894e+00 2.0880402783e+01 -5.8316561897e-22 1.3839961609e-01 4.2295823929e-02 1.0000132366e-24
5.28672            -3.1901136449e+00 2.1060687616e+01 8.8969711826e-22 -3.3280961252e+00 2.1019891496e+01 9.0709181377e-22 1.3798248031e-01 4.0796119901e-02 -1.7394695515e-23
5.29607            -3.0274957281e+00 2.1140486416e+01 1.8407130036e-20 -3.1650266186e+00 2.1101171059e+01 1.8439927380e-20 1.3753089050e-01 3.9315356987e-02 -3.2797344076e-23
5.30542            -2.8432512487e+00 2.1066493746e+01 -8.3081805000e-21 -2.9803342279e+00 2.1028673088e+01 -8.3517190595e-21 1.3708297923e-01 3.7820657417e-02 4.3538559480e-23
5.31477            -2.6500116178e+00 2.0928995897e+01 5.1006370838e-21 -2.7866186262e+00 2.0892699401e+01 5.1106492540e-21 1.3660700839e-01 3.6296496306e-02 -1.0012170226e-23
5.32407            -2.4721239773e+00 2.0999368103e+01 -2.0780242251e-21 -2.6082637857e+00 2.0964550691e+01 -2.0893976911e-21 1.3613980842e-01 3.4817412076e-02 1.1373465986e-23
5.33317            -2.3018444953e+00 2.1044980858e+01 -3.3356230565e-21 -2.4375913790e+00 2.1011578593e+01 -3.3178806241e-21 1.3574688366e-01 3.3402265015e-02 -1.7742432389e-23
5.34214            -2.1071792861e+00 2.0861869961e+01 1.4697119025e-20 -2.2425169993e+00 2.0829881040e+01 1.4696766264e-20 1.3533771314e-01 3.1988920403e-02 3.5276047954e-25
5.35107            -1.9654740442e+00 2.0991756681e+01 5.6249465931e-21 -2.1003859315e+00 2.0961152779e+01 5.6668313888e-21 1.3491188730e-01 3.0603902880e-02 -4.1884795710e-23
5.36               -1.7577149837e+00 2.0663042494e+01 8.7491315206e-21 -1.8921315543e+00 2.0633833167e+01 8.7836298168e-21 1.3441657058e-01 2.9209327594e-02 -3.4498296165e-23
5.36893            -1.6207165027e+00 2.0999638400e+01 1.6998701503e-21 -1.7545998658e+00 2.0971807188e+01 1.7108455439e-21 1.3388336313e-01 2.7831211761e-02 -1.0975393596e-23
5.37784            -1.4053163345e+00 2.0780366240e+01 2.7286671892e-21 -1.5387348022e+00 2.0753864482e+01 2.7520208740e-21 1.3341846778e-01 2.6501758489e-02 -2.3353684794e-23
5.38674            -1.2270856806e+00 2.0603280920e+01 -1.3349597830e-20 -1.3600246263e+00 2.0578143183e+01 -1.3334947484e-20 1.3293894578e-01 2.5137736901e-02 -1.4650345448e-23
5.39564            -1.0989050805e+00 2.0825443208e+01 3.2563752468e-21 -1.2313464370e+00 2.0801632863e+01 3.2502806762e-21 1.3244135647e-01 2.3810344583e-02 6.0945706001e-24
5.40454            -8.7734289193e-01 2.0149704139e+01 -2.5449232727e-21 -1.0092144492e+00 2.0127236124e+01 -2.5557591060e-21 1.3187155725e-01 2.2468015159e-02 1.0835833262e-23
5.41347            -7.3535493605e-01 2.0722086072e+01 5.6807472981e-21 -8.6658261440e-01 2.0700919103e+01 5.6711590091e-21 1.3122767834e-01 2.1166968864e-02 9.5882889816e-24
5.4224             -4.7134714438e-01 1.9900653979e+01 2.8326991279e-21 -6.0207914501e-01 1.9880772454e+01 2.8564067024e-21 1.3073200063e-01 1.9881525524e-02 -2.3707574497e-23
5.43135            -3.7639833818e-01 2.0289835442e+01 5.7984508199e-21 -5.0659288929e-01 2.0271280130e+01 5.8069130205e-21 1.3019455111e-01 1.8555312200e-02 -8.4622006105e-24
5.44031            -2.0793559545e-01 2.0235012399e+01 1.0383123849e-20 -3.3748615606e-01 2.0217747070e+01 1.0417373362e-20 1.2955056060e-01 1.7265328731e-02 -3.4249513439e-23
5.4493             -4.0555168412e-03 2.0244057788e+01 -9.0385821118e-21 -1.3296353339e-01 2.0228093835e+01 -9.0460258220e-21 1.2890801655e-01 1.5963953733e-02 7.4437101702e-24
5.45829            1.4404092239e-01 2.0184506136e+01 -5.7728691138e-21 1.5679090574e-02 2.0169743366e+01 -5.7720235828e-21 1.2836183181e-01 1.4762770360e-02 -8.4553102482e-25
5.4673             3.6304043613e-01 1.9613472540e+01 1.4564282809e-20 2.3522447750e-01 1.9599981667e+01 1.4566873222e-20 1.2781595863e-01 1.3490873300e-02 -2.5904130373e-24
5.47633            5.0674531854e-01 1.9867071289e+01 8.9152494829e-21 3.7954797348e-01 1.9854826245e+01 8.9206380945e-21 1.2719734506e-01 1.2245043797e-02 -5.3886115716e-24
5.48538            7.1015956002e-01 1.8845449231e+01 5.8923499142e-21 5.8363237857e-01 1.8834436147e+01 5.8920834029e-21 1.2652718146e-01 1.1013083708e-02 2.6651131710e-25
5.49446            8.9121207597e-01 1.9860373392e+01 1.6542745187e-21 7.6523661681e-01 1.9850570058e+01 1.6631518952e-21 1.2597545915e-01 9.8033339119e-03 -8.8773765515e-24
5.50355            1.0068729015e+00 1.9326170582e+01 -2.8012440298e-21 8.8147719708e-01 1.9317530512e+01 -2.8103515009e-21 1.2539570440e-01 8.6400698578e-03 9.1074710503e-24
5.5127             1.2178765371e+00 1.9180281788e+01 3.3654857171e-21 1.0929438677e+00 1.9172775135e+01 3.3447312402e-21 1.2493266935e-01 7.5066538489e-03 2.0754476992e-23
5.52187            1.3887040043e+00 1.9090711490e+01 4.3058262173e-21 1.2642696778e+00 1.9084308484e+01 4.3024525323e-21 1.2443432645e-01 6.4030058766e-03 3.3736850822e-24
5.53107            1.5155317192e+00 1.8619023215e+01 2.2764822662e-21 1.3916989253e+00 1.8613826779e+01 2.2902789699e-21 1.2383279393e-01 5.1964360458e-03 -1.3796703700e-23
5.54031            1.7251233190e+00 1.9150087228e+01 9.5768883935e-21 1.6019123938e+00 1.9145981739e+01 9.5844224321e-21 1.2321092518e-01 4.1054892462e-03 -7.5340385864e-24
5.54956            1.9127648382e+00 1.8364244730e+01 1.1247033858e-20 1.7901440247e+00 1.8361301196e+01 1.1270117013e-20 1.2262081345e-01 2.9435341728e-03 -2.3083154711e-23
5.55886            2.0507242284e+00 1.8521395240e+01 1.2315174387e-21 1.9287389067e+00 1.8519608269e+01 1.2201098854e-21 1.2198532169e-01 1.7869714465e-03 1.1407553335e-23
5.56817            2.2085886286e+00 1.8106104455e+01 -7.0655554411e-21 2.0872836469e+00 1.8105441292e+01 -7.0743882717e-21 1.2130498164e-01 6.6316275370e-04 8.8328306086e-24
5.57752            2.4515186355e+00 1.8580768181e+01 -5.9368158873e-21 2.3308607259e+00 1.8581225956e+01 -5.9550774823e-21 1.2065790959e-01 -4.5777449070e-04 1.8261594956e-23
5.58689            2.5503902232e+00 1.7984783808e+01 7.7927920650e-21 2.4303439348e+00 1.7986302025e+01 7.8182736351e-21 1.2004628844e-01 -1.5182167322e-03 -2.5481570089e-23
5.59625            2.7079539017e+00 1.7793205861e+01 -3.6440401966e-21 2.5885387654e+00 1.7795874132e+01 -3.6546580282e-21 1.1941513636e-01 -2.6682703105e-03 1.0617831549e-23
5.60567            2.8975889874e+00 1.7846610865e+01 6.2200507742e-22 2.7787753530e+00 1.7850431585e+01 6.1599765219e-22 1.1881363439e-01 -3.8207206342e-03 6.0074252307e-24
5.61512            3.0077611128e+00 1.7309222083e+01 3.5945242842e-21 2.8895820655e+00 1.7314157672e+01 3.6234190028e-21 1.1817904730e-01 -4.9355886922e-03 -2.8894718547e-23
5.62461            3.2482622815e+00 1.7715947884e+01 1.5949512541e-21 3.1307269736e+00 1.7721909130e+01 1.5999526431e-21 1.1753530791e-01 -5.9612465942e-03 -5.0013890019e-24
5.63414            3.3377987308e+00 1.7022662261e+01 -1.0445118094e-21 3.2208492335e+00 1.7029680868e+01 -1.0323000695e-21 1.1694949731e-01 -7.0186072682e-03 -1.2211739950e-23
5.64372            3.4961803998e+00 1.7044125665e+01 -2.2581739606e-21 3.3799214540e+00 1.7052207200e+01 -2.2688087114e-21 1.1625894577e-01 -8.0815353757e-03 1.0634750767e-23
5.65334            3.6726681272e+00 1.6864856569e+01 -1.9992498117e-21 3.5570748789e+00 1.6873999660e+01 -1.9783852764e-21 1.1559324830e-01 -9.1430908742e-03 -2.0864535299e-23
5.663              3.8554247132e+00 1.6928519515e+01 3.3756858578e-21 3.7404694794e+00 1.6938733348e+01 3.3760173016e-21 1.1495523389e-01 -1.0213833169e-02 -3.3144376663e-25
5.67268            4.0070962592e+00 1.6771353079e+01 -5.9986087982e-21 3.8927763806e+00 1.6782569146e+01 -5.9990082589e-21 1.1431987860e-01 -1.1216067522e-02 3.9946074706e-25
5.68238            4.1276846013e+00 1.6492301641e+01 1.3466745277e-21 4.0139888749e+00 1.6504529176e+01 1.3409897720e-21 1.1369572645e-01 -1.2227534665e-02 5.6847557342e-24
5.69212            4.2428803204e+00 1.6159079537e+01 3.1868879839e-21 4.1298464486e+00 1.6172312186e+01 3.1762610877e-21 1.1303387177e-01 -1.3232648952e-02 1.0626896211e-23
5.70187            4.3887723275e+00 1.6099917403e+01 7.9281206720e-21 4.2764533052e+00 1.6114140848e+01 7.9335054431e-21 1.1231902226e-01 -1.4223444809e-02 -5.3847711096e-24
5.71171            4.6048968833e+00 1.6155760745e+01 -9.9554308782e-21 4.4932210085e+00 1.6170958541e+01 -9.9674829040e-21 1.1167587479e-01 -1.5197795767e-02 1.2052025728e-23
5.72157            4.7603459321e+00 1.6048768067e+01 7.4316446734e-21 4.6492697393e+00 1.6064928485e+01 7.4253266788e-21 1.1107619284e-01 -1.6160418381e-02 6.3179946056e-24
5.73147            4.8906238252e+00 1.5857272682e+01 -7.4646742697e-21 4.7801230634e+00 1.5874392960e+01 -7.4852844787e-21 1.1050076182e-01 -1.7120277647e-02 2.0610208957e-23
5.74141            5.0065904233e+00 1.5621501649e+01 6.3640650098e-22 4.8966633775e+00 1.5639579978e+01 6.5921003649e-22 1.0992704589e-01 -1.8078329527e-02 -2.2803535506e-23
5.7514             5.1349636737e+00 1.5473467097e+01 5.3383339326e-21 5.0256397482e+00 1.5492495276e+01 5.3266106968e-21 1.0932392548e-01 -1.9028179022e-02 1.1723235821e-23
5.76144            5.2550667027e+00 1.5281703256e+01 -2.6913652397e-21 5.1463633132e+00 1.5301670242e+01 -2.6742321130e-21 1.0870338944e-01 -1.9966986297e-02 -1.7133126718e-23
5.77153            5.3708871619e+00 1.5076564254e+01 6.0574818893e-21 5.2627705446e+00 1.5097461157e+01 6.0535730311e-21 1.0811661732e-01 -2.0896902689e-02 3.9088582070e-24
5.78166            5.5320323790e+00 1.5013989751e+01 -2.6673977522e-22 5.4244928903e+00 1.5035808477e+01 -2.5307330702e-22 1.0753948868e-01 -2.1818725515e-02 -1.3666468199e-23
5.79184            5.5909522877e+00 1.4668347694e+01 -1.0783721388e-22 5.4839775487e+00 1.4691079767e+01 -1.1410266423e-22 1.0697473903e-01 -2.2732072853e-02 6.2654503470e-24
5.80205            5.7797319737e+00 1.4724687039e+01 -5.0969378093e-22 5.6733464052e+00 1.4748316576e+01 -5.3435152420e-22 1.0638556850e-01 -2.3629536614e-02 2.4657743273e-23
5.81233            5.8708055541e+00 1.4480786255e+01 1.5862284767e-21 5.7649909385e+00 1.4505301586e+01 1.5825630480e-21 1.0581461553e-01 -2.4515331226e-02 3.6654286717e-24
5.82266            5.9919785605e+00 1.4355339240e+01 -9.4171790063e-21 5.8867105637e+00 1.4380732984e+01 -9.4303592115e-21 1.0526799684e-01 -2.5393743841e-02 1.3180205170e-23
5.83303            6.0844372298e+00 1.4151014842e+01 -7.7208117251e-21 5.9797299067e+00 1.4177277286e+01 -7.7171797364e-21 1.0470732314e-01 -2.6262444037e-02 -3.6319886991e-24
5.84346            6.2180759835e+00 1.4086086905e+01 -1.9003867003e-20 6.1139335204e+00 1.4113201463e+01 -1.9036940360e-20 1.0414246320e-01 -2.7114558944e-02 3.3073357362e-23
5.85394            6.3582639442e+00 1.3994082896e+01 -2.2863209310e-21 6.2546715975e+00 1.4022036643e+01 -2.2709229909e-21 1.0359234671e-01 -2.7953747128e-02 -1.5397940074e-23
5.86445            6.5096872392e+00 1.3973009792e+01 7.1536796639e-21 6.4066361917e+00 1.4001791021e+01 7.1754309456e-21 1.0305104750e-01 -2.8781229759e-02 -2.1751281769e-23
5.87502            6.5760466931e+00 1.3730531724e+01 1.5334528929e-21 6.4735350417e+00 1.3760123355e+01 1.5323978426e-21 1.0251165134e-01 -2.9591630951e-02 1.0550502972e-24
5.88565            6.6385492703e+00 1.3519596047e+01 -2.5435698350e-21 6.5365607558e+00 1.3549994930e+01 -2.5505564525e-21 1.0198851454e-01 -3.0398882437e-02 6.9866174854e-24
5.89635            6.6904709215e+00 1.3290013859e+01 -9.9527580653e-21 6.5890116618e+00 1.3321210715e+01 -9.9319606644e-21 1.0145925972e-01 -3.1196855617e-02 -2.0797400976e-23
5.90711            6.8204626565e+00 1.3231478804e+01 -3.5596607731e-21 6.7195328228e+00 1.3263461827e+01 -3.5619861608e-21 1.0092983371e-01 -3.1983022496e-02 2.3253877486e-24
5.91795            6.8917723681e+00 1.3061029145e+01 -6.3855159907e-21 6.7913710706e+00 1.3093790724e+01 -6.3540961694e-21 1.0040129760e-01 -3.2761578421e-02 -3.1419821263e-23
5.92885            6.9533899235e+00 1.2864579176e+01 1.6720118899e-21 6.8535451189e+00 1.2898137955e+01 1.6349450764e-21 9.9844804552e-02 -3.3558778560e-02 3.7066813557e-23
5.93983            7.0303051555e+00 1.2714946258e+01 7.7615873892e-21 6.9309832911e+00 1.2749259747e+01 7.8122604484e-21 9.9321864322e-02 -3.4313489987e-02 -5.0673059255e-23
5.95089            7.1149117879e+00 1.2605896458e+01 1.7348223322e-20 7.0160836892e+00 1.2640936784e+01 1.7367176760e-20 9.8828098697e-02 -3.5040326407e-02 -1.8953437938e-23
5.96202            7.1545103464e+00 1.2411173855e+01 7.7330870573e-21 7.0561863273e+00 1.2446908501e+01 7.7475366765e-21 9.8324019119e-02 -3.5734646358e-02 -1.4449619226e-23
5.97324            7.1892809190e+00 1.2235775499e+01 1.1652608629e-20 7.0914592774e+00 1.2272182573e+01 1.1668243320e-20 9.7821641642e-02 -3.6407073301e-02 -1.5634691089e-23
5.98454            7.2951549700e+00 1.2154826935e+01 -4.3214099932e-21 7.1977825590e+00 1.2191902097e+01 -4.3186005016e-21 9.7372411034e-02 -3.7075161647e-02 -2.8094916574e-24
5.99591            7.3438270078e+00 1.2015383695e+01 9.1956094172e-21 7.2469067059e+00 1.2053099408e+01 9.2062715897e-21 9.6920301905e-02 -3.7715713349e-02 -1.0662172486e-23
6.00735            7.3690078307e+00 1.1814910281e+01 7.2921271945e-21 7.2725204221e+00 1.1853249549e+01 7.3004888557e-21 9.6487408591e-02 -3.8339267935e-02 -8.3616611376e-24
6.01892            7.3268079878e+00 1.1514701344e+01 -1.6204767069e-21 7.2307518085e+00 1.1553672800e+01 -1.5753869902e-21 9.6056179344e-02 -3.8971455480e-02 -4.5089716690e-23
6.03061            7.4336527270e+00 1.1499055425e+01 -2.0479440017e-22 7.3380138781e+00 1.1538618750e+01 -2.2365573465e-22 9.5638848864e-02 -3.9563324738e-02 1.8861334476e-23
6.0424             7.4140152801e+00 1.1271795063e+01 4.6472964450e-21 7.3187795852e+00 1.1311917388e+01 4.6976207100e-21 9.5235694916e-02 -4.0122325347e-02 -5.0324265040e-23
6.05429            7.4410366229e+00 1.1120849784e+01 4.8786806118e-22 7.3461696298e+00 1.1161521409e+01 4.7643668232e-22 9.4866993116e-02 -4.0671625229e-02 1.1431378859e-23
6.06629            7.4731072061e+00 1.1022589509e+01 1.0975790582e-20 7.3786020481e+00 1.1063795188e+01 1.0995027505e-20 9.4505157990e-02 -4.1205679437e-02 -1.9236922151e-23
6.07841            7.4390573782e+00 1.0767424393e+01 3.3463509675e-22 7.3449102511e+00 1.0809137266e+01 3.3362480833e-22 9.4147127107e-02 -4.1712873107e-02 1.0102884145e-24
6.09065            7.4139319838e+00 1.0574983065e+01 4.9101535585e-21 7.3201178887e+00 1.0617180977e+01 4.9188995344e-21 9.3814095166e-02 -4.2197912666e-02 -8.7459758527e-24
6.10298            7.3849400743e+00 1.0370559137e+01 2.2400843159e-21 7.2914451209e+00 1.0413218528e+01 2.1871910022e-21 9.3494953356e-02 -4.2659391287e-02 5.2893313758e-23
6.1155             7.3410645750e+00 1.0171996904e+01 -3.3710555075e-21 7.2478827988e+00 1.0215096247e+01 -3.3473499156e-21 9.3181776193e-02 -4.3099343113e-02 -2.3705591922e-23
6.12817            7.3163351820e+00 1.0009382374e+01 -6.3890381739e-22 7.2234479160e+00 1.0052884943e+01 -6.2199551671e-22 9.2887265969e-02 -4.3502568812e-02 -1.6908300684e-23
6.14099            7.2640181918e+00 9.8101856686e+00 -2.7279698049e-22 7.1714130894e+00 9.8540739919e+00 -2.7993418359e-22 9.2605102314e-02 -4.3888323358e-02 7.1372030980e-24
6.15397            7.2164188548e+00 9.6159810057e+00 -1.7824716705e-21 7.1240686621e+00 9.6602188110e+00 -1.8014664193e-21 9.2350192713e-02 -4.4237805302e-02 1.8994748832e-23
6.16711            7.1509400983e+00 9.4173264719e+00 1.1376123056e-20 7.0588278988e+00 9.4618881093e+00 1.1398003955e-20 9.2112199572e-02 -4.4561637347e-02 -2.1880899380e-23
6.18043            7.1080840946e+00 9.2479615289e+00 -2.0284093408e-21 7.0161853741e+00 9.2928094107e+00 -2.0322686107e-21 9.1898720548e-02 -4.4847881836e-02 3.8592699023e-24
6.19392            6.9789393700e+00 8.9916335242e+00 -1.2815559853e-20 6.8872275663e+00 9.0367319146e+00 -1.2835962306e-20 9.1711803685e-02 -4.5098390390e-02 2.0402453143e-23
6.20756            6.9042002794e+00 8.7950243546e+00 -1.0432157114e-20 6.8126538891e+00 8.8403430211e+00 -1.0485459772e-20 9.1546390351e-02 -4.5318666548e-02 5.3302657116e-23
6.22147            6.8189633518e+00 8.6065238046e+00 -9.4970161021e-22 6.7275653947e+00 8.6520272782e+00 -9.3455872971e-22 9.1397957106e-02 -4.5503473608e-02 -1.5142880503e-23
6.2356             6.6819177194e+00 8.3613778709e+00 1.1544809355e-20 6.5906487772e+00 8.4070273800e+00 1.1577069586e-20 9.1268942279e-02 -4.5649509065e-02 -3.2260230602e-23
6.24996            6.5842247700e+00 8.1651437207e+00 1.6051946638e-20 6.4930609997e+00 8.2108982018e+00 1.6088158087e-20 9.1163770243e-02 -4.5754481108e-02 -3.6211449595e-23
6.26457            6.4187314100e+00 7.8936302158e+00 -3.0594195912e-21 6.3276302484e+00 7.9394522526e+00 -3.1276807321e-21 9.1101161568e-02 -4.5822036793e-02 6.8261140972e-23
6.27939            6.3079892460e+00 7.7077897023e+00 -6.6654417984e-21 6.2169329445e+00 7.7536320960e+00 -6.6864782041e-21 9.1056301569e-02 -4.5842393644e-02 2.1036405659e-23
6.29422            6.1583443673e+00 7.4715524577e+00 3.0914721393e-21 6.0673019502e+00 7.5173794763e+00 3.1179523585e-21 9.1042417025e-02 -4.5827018684e-02 -2.6480219196e-23
6.30905            5.9922300853e+00 7.2241051292e+00 8.1671087480e-21 5.9011758669e+00 7.2698664613e+00 8.2368451146e-21 9.1054218351e-02 -4.5761332112e-02 -6.9736366571e-23
6.3239             5.8404449574e+00 7.0075212522e+00 -1.7488409255e-21 5.7493534162e+00 7.0531769074e+00 -1.7597582094e-21 9.1091541247e-02 -4.5655655143e-02 1.0917283886e-23
6.33876            5.7063873316e+00 6.8042249834e+00 -1.6458554375e-21 5.6152353580e+00 6.8497219043e+00 -1.6582390313e-21 9.1151973545e-02 -4.5496920929e-02 1.2383593744e-23
6.35363            5.5205877746e+00 6.5498018654e+00 2.1014679209e-22 5.4293412124e+00 6.5950934779e+00 2.3233035446e-22 9.1246562158e-02 -4.5291612549e-02 -2.2183562370e-23
6.36854            5.3501425760e+00 6.3328176494e+00 6.8309138699e-21 5.2587745504e+00 6.3778617248e+00 6.8442137367e-21 9.1368025568e-02 -4.5044075397e-02 -1.3299866816e-23
6.38345            5.1934729628e+00 6.1316023161e+00 -8.1574761107e-21 5.1019603279e+00 6.1763493396e+00 -8.1578197773e-21 9.1512634955e-02 -4.4747023472e-02 3.4366668913e-25
6.39836            4.9721595504e+00 5.8386806092e+00 6.4495454069e-21 4.8804805494e+00 5.8830838684e+00 6.4577728730e-21 9.1679000983e-02 -4.4403259164e-02 -8.2274661065e-24
6.41336            4.8293781772e+00 5.6838322232e+00 3.5218935501e-21 4.7375041351e+00 5.7278461691e+00 3.5230167721e-21 9.1874042154e-02 -4.4013945913e-02 -1.1232219414e-24
6.42841            4.6493826549e+00 5.4276481318e+00 3.5755286138e-21 4.5573029013e+00 5.4712205960e+00 3.5976396218e-21 9.2079753598e-02 -4.3572464245e-02 -2.2111007996e-23
6.44352            4.4788782613e+00 5.2426681996e+00 3.0082556636e-21 4.3865597224e+00 5.2857464371e+00 2.9973910889e-21 9.2318538910e-02 -4.3078237562e-02 1.0864574734e-23
6.45869            4.3011689890e+00 5.0263482781e+00 6.4340556319e-21 4.2085857799e+00 5.0688848295e+00 6.4434951674e-21 9.2583209105e-02 -4.2536551377e-02 -9.4395355193e-24
6.47392            4.0811470092e+00 4.7544658925e+00 -6.0757567197e-21 3.9882721581e+00 4.7964139926e+00 -6.0817246117e-21 9.2874851149e-02 -4.1948100046e-02 5.9678919553e-24
6.48917            3.9505793965e+00 4.5941640648e+00 3.4683494723e-21 3.8573975923e+00 4.6354778115e+00 3.4508367559e-21 9.3181804182e-02 -4.1313746766e-02 1.7512716325e-23
6.50447            3.7624824069e+00 4.3733720713e+00 7.2339768722e-22 3.6689727121e+00 4.4140033910e+00 7.2789303312e-22 9.3509694841e-02 -4.0631319765e-02 -4.4953458997e-24
6.51993            3.5874161808e+00 4.1508795200e+00 1.8149625059e-21 3.4935471804e+00 4.1907732366e+00 1.8145077147e-21 9.3869000430e-02 -3.9893716652e-02 4.5479119885e-25
6.53547            3.4368350717e+00 3.9837333313e+00 9.3769986822e-23 3.3425897243e+00 4.0228470597e+00 8.4496484067e-23 9.4245347393e-02 -3.9113728411e-02 9.2735027541e-24
6.55111            3.2941209317e+00 3.8315802433e+00 -4.9949357788e-21 3.1994796790e+00 3.8698649188e+00 -4.9801270080e-21 9.4641252787e-02 -3.8284675463e-02 -1.4808770776e-23
6.56684            3.0144396174e+00 3.4070049445e+00 4.9842520710e-21 2.9193726640e+00 3.4444045054e+00 4.9920236212e-21 9.5066953394e-02 -3.7399560888e-02 -7.7715501719e-24
6.58268            2.9641619629e+00 3.4200961064e+00 -4.1721191357e-21 2.8686562808e+00 3.4565566002e+00 -4.1709439818e-21 9.5505682104e-02 -3.6460493754e-02 -1.1751538668e-24
6.59857            2.8293934237e+00 3.2554577185e+00 -1.4050770935e-21 2.7334156801e+00 3.2909379003e+00 -1.3983774048e-21 9.5977743634e-02 -3.5480181815e-02 -6.6996887279e-24
6.61459            2.6900062259e+00 3.0767456783e+00 -4.8574474280e-21 2.5935445512e+00 3.1111972146e+00 -4.8956048039e-21 9.6461674664e-02 -3.4451536300e-02 3.8157375878e-23
6.63073            2.5645480461e+00 2.9315792240e+00 3.9957559432e-21 2.4675698401e+00 2.9649610431e+00 4.0076712940e-21 9.6978205971e-02 -3.3381819140e-02 -1.1915350867e-23
6.64697            2.4308986310e+00 2.7455324299e+00 3.8557358514e-21 2.3333545234e+00 2.7777694821e+00 3.8669956720e-21 9.7544107588e-02 -3.2237052175e-02 -1.1259820615e-23
6.66326            2.2946283798e+00 2.5753441077e+00 -3.5718741015e-21 2.1965097754e+00 2.6064254583e+00 -3.5555782854e-21 9.8118604422e-02 -3.1081350644e-02 -1.6295816139e-23
6.67962            2.1875929009e+00 2.4565147957e+00 1.7744584765e-22 2.0889084167e+00 2.4864157813e+00 1.7224301260e-22 9.8684484218e-02 -2.9900985588e-02 5.2028350494e-24
6.69606            2.0842724591e+00 2.3434488095e+00 1.0825465193e-21 1.9850430260e+00 2.3721201519e+00 1.0868778733e-21 9.9229433106e-02 -2.8671342376e-02 -4.3313540424e-24
6.71258            2.0219746702e+00 2.2765703261e+00 3.4796662085e-21 1.9221959001e+00 2.3039699048e+00 3.4823055912e-21 9.9778770092e-02 -2.7399578734e-02 -2.6393827521e-24
6.72921            1.9238362908e+00 2.1606254667e+00 1.0484967160e-21 1.8234982425e+00 2.1867170363e+00 1.0194055817e-21 1.0033804837e-01 -2.6091569592e-02 2.9091134299e-23
6.74592            1.8220141198e+00 2.0230405875e+00 -3.8198804360e-21 1.7211170572e+00 2.0477916601e+00 -3.8350019285e-21 1.0089706254e-01 -2.4751072546e-02 1.5121492446e-23
6.76271            1.7588317772e+00 1.9716236300e+00 -4.9539003725e-22 1.6573742354e+00 1.9949966336e+00 -4.6602677238e-22 1.0145754179e-01 -2.3373003613e-02 -2.9363264866e-23
6.77958            1.6792707317e+00 1.8737445242e+00 3.5511681690e-21 1.5772399943e+00 1.8957092924e+00 3.5406154908e-21 1.0203073747e-01 -2.1964768200e-02 1.0552678193e-23
6.79646            1.6246120622e+00 1.8126118247e+00 1.6105890602e-21 1.5220121843e+00 1.8331437863e+00 1.6106780745e-21 1.0259987797e-01 -2.0531961581e-02 -8.9014321203e-26
6.81345            1.5762763848e+00 1.7900740585e+00 -9.7889298711e-22 1.4731200366e+00 1.8091357907e+00 -9.9524412049e-22 1.0315634813e-01 -1.9061732238e-02 1.6351133382e-23
6.83054            1.5233418158e+00 1.7501666531e+00 -3.8681203529e-22 1.4196188492e+00 1.7677239980e+00 -3.8031933894e-22 1.0372296662e-01 -1.7557344869e-02 -6.4926963457e-24
6.84765            1.4723869747e+00 1.6865128178e+00 3.2213760293e-21 1.3680906658e+00 1.7025363895e+00 3.1973174128e-21 1.0429630889e-01 -1.6023571651e-02 2.4058616542e-23
6.86476            1.4362336177e+00 1.6665155126e+00 -5.7337813140e-22 1.3313578061e+00 1.6809826295e+00 -5.6745110396e-22 1.0487581153e-01 -1.4467116898e-02 -5.9270274365e-24
6.88186            1.4029941628e+00 1.6473161190e+00 -8.0989124509e-21 1.2975415133e+00 1.6602134659e+00 -8.1367698092e-21 1.0545264953e-01 -1.2897346925e-02 3.7857358302e-23
6.89897            1.3647448576e+00 1.6309904360e+00 1.7840903140e-22 1.2587239036e+00 1.6423061768e+00 1.9886587954e-22 1.0602095405e-01 -1.1315740875e-02 -2.0456848142e-23
6.91601            1.3376473844e+00 1.6001409749e+00 -4.4162533803e-22 1.2311029282e+00 1.6098579065e+00 -4.6245862481e-22 1.0654445623e-01 -9.7169316230e-03 2.0833286785e-23
6.933              1.3342806234e+00 1.6287988712e+00 5.6530147179e-21 1.2272145373e+00 1.6369002219e+00 5.6556757528e-21 1.0706608613e-01 -8.1013507077e-03 -2.6610349694e-24
6.94983            1.2952177824e+00 1.5544662961e+00 -1.2170420064e-20 1.1876475628e+00 1.5609413570e+00 -1.2204260562e-20 1.0757021960e-01 -6.4750609212e-03 3.3840498051e-23