# Moment          
# CofR            : (0.0000000000e+00 0.0000000000e+00 0.0000000000e+00)
#
# Time            	total_x total_y total_z	pressure_x pressure_y pressure_z	viscous_x viscous_y viscous_z
5.00086            1.3498219499e-21 1.7600113684e-22 -3.1328731423e-01 1.3296898972e-21 1.8783341318e-22 -3.5528440085e-01 2.0132052720e-23 -1.1832276343e-23 4.1997086618e-02
5.00947            1.5601966155e-21 7.6174567465e-22 -3.2911914326e-01 1.5796481960e-21 7.4570350506e-22 -3.7212668168e-01 -1.9451580506e-23 1.6042169595e-23 4.3007538424e-02
5.01809            -6.3869579190e-21 4.5411722081e-21 -3.3560988041e-01 -6.4001430473e-21 4.5498516352e-21 -3.7963014918e-01 1.3185128273e-23 -8.6794271538e-24 4.4020268764e-02
5.02673            -4.3048117281e-21 3.5758741917e-21 -3.4854468288e-01 -4.2898137374e-21 3.5670049375e-21 -3.9354978612e-01 -1.4997990717e-23 8.8692541538e-24 4.5005103245e-02
5.03536            1.5988720628e-21 -1.2972289729e-21 -3.5407045560e-01 1.5937824584e-21 -1.2951730458e-21 -4.0004710865e-01 5.0896043849e-24 -2.0559270955e-24 4.5976653059e-02
5.04399            -3.3013102436e-21 4.2252532367e-21 -3.6323149044e-01 -3.3214215146e-21 4.2400000942e-21 -4.1016124716e-01 2.0111271031e-23 -1.4746857458e-23 4.6929756723e-02
5.05262            -3.8424637921e-22 7.2682441144e-22 -3.6144126451e-01 -3.9255421820e-22 7.3203647312e-22 -4.0931209052e-01 8.3078389981e-24 -5.2120616871e-24 4.7870826012e-02
5.06125            -2.7514572352e-21 -2.5810434630e-22 -3.5203834779e-01 -2.7474773463e-21 -2.6341619631e-22 -4.0083131766e-01 -3.9798889226e-24 5.3118500150e-24 4.8792969870e-02
5.06989            7.8342556142e-22 -6.3100694541e-21 -3.6133798718e-01 7.8497200843e-22 -6.3124801115e-21 -4.1103182851e-01 -1.5464470108e-24 2.4106574301e-24 4.9693841327e-02
5.07854            -1.8690564957e-22 9.9442199301e-22 -3.5963172255e-01 -1.8460266470e-22 9.9182474564e-22 -4.1019985842e-01 -2.3029848682e-24 2.5972473639e-24 5.0568135879e-02
5.08719            -8.0348013567e-22 2.4950245098e-21 -3.5216535619e-01 -8.0464481071e-22 2.4956899739e-21 -4.0358722122e-01 1.1646750373e-24 -6.6546411966e-25 5.1421865034e-02
5.09585            5.3669084172e-21 -3.3259010610e-21 -3.3628777991e-01 5.3636148400e-21 -3.3219512571e-21 -3.8853699388e-01 3.2935772483e-24 -3.9498038678e-24 5.2249213965e-02
5.10452            7.6835857120e-21 -4.9104560823e-21 -3.3300203284e-01 7.6855454245e-21 -4.9148722955e-21 -3.8606620612e-01 -1.9597125142e-24 4.4162131729e-24 5.3064173284e-02
5.11324            -5.6048523163e-21 4.5682417635e-21 -3.1261520832e-01 -5.6120765005e-21 4.5752055292e-21 -3.6647453314e-01 7.2241841877e-24 -6.9637656551e-24 5.3859324816e-02
5.12198            -5.1401052461e-21 1.3235531035e-21 -2.9979539820e-01 -5.1367465145e-21 1.3195254985e-21 -3.5443676684e-01 -3.3587316296e-24 4.0276050242e-24 5.4641368635e-02
5.13074            -3.1975141358e-21 1.8892810196e-21 -2.8192620305e-01 -3.1941333790e-21 1.8836752243e-21 -3.3733039718e-01 -3.3807568153e-24 5.6057953422e-24 5.5404194139e-02
5.13954            2.1369516157e-21 1.1698028717e-21 -2.5209295722e-01 2.1299518372e-21 1.1743721230e-21 -3.0823062162e-01 6.9997785024e-24 -4.5692513000e-24 5.6137664396e-02
5.14839            4.3904965723e-21 -1.1169161402e-21 -2.2132292875e-01 4.3925171822e-21 -1.1190670609e-21 -2.7817175504e-01 -2.0206099849e-24 2.1509206250e-24 5.6848826285e-02
5.15727            1.2954476051e-21 2.6077128398e-21 -1.8919893455e-01 1.2752438910e-21 2.6202168774e-21 -2.4674774192e-01 2.0203714023e-23 -1.2504037667e-23 5.7548807370e-02
5.16621            1.3861487506e-21 -3.9819569304e-21 -1.5699657987e-01 1.3914988356e-21 -3.9811997319e-21 -2.1522050784e-01 -5.3500849614e-24 -7.5719856482e-25 5.8223927972e-02
5.1752             1.2563813052e-21 3.9943834250e-21 -1.1632463488e-01 1.2506314162e-21 4.0000495806e-21 -1.7520265812e-01 5.7498889281e-24 -5.6661555632e-24 5.8878023245e-02
5.18425            -3.9369800967e-21 2.8607714752e-21 -7.3602303654e-02 -3.9378743017e-21 2.8647750683e-21 -1.3310424351e-01 8.9420494879e-25 -4.0035930248e-24 5.9501939860e-02
5.19335            3.8989660575e-21 -1.7333967979e-21 -2.7243709913e-02 3.9046424062e-21 -1.7369681512e-21 -8.7331618272e-02 -5.6763486449e-24 3.5713532677e-24 6.0087908358e-02
5.20249            1.4700992494e-23 7.6727980348e-22 3.0933672984e-02 1.6316974886e-23 7.6437261326e-22 -2.9732032805e-02 -1.6159823914e-24 2.9071902215e-24 6.0665705789e-02
5.21176            1.1424866380e-21 1.3190677632e-21 8.3011332931e-02 1.1466824409e-21 1.3173465354e-21 2.1794603225e-02 -4.1958029077e-24 1.7212278621e-24 6.1216729706e-02
5.22112            1.8387337440e-21 -3.9678509685e-22 1.5270707009e-01 1.8493098983e-21 -4.0621232822e-22 9.0960552491e-02 -1.0576154309e-23 9.4272313627e-24 6.1746517596e-02
5.23051            1.4805712545e-22 -2.8527509805e-21 2.1619150926e-01 1.4687571912e-22 -2.8517380483e-21 1.5395144498e-01 1.1814063294e-24 -1.0129322839e-24 6.2240064276e-02
5.2399             6.7650111606e-21 -2.1580211374e-21 2.7880382605e-01 6.7740082404e-21 -2.1659975572e-21 2.1608441576e-01 -8.9970798545e-24 7.9764197483e-24 6.2719410291e-02
5.24928            -3.1059391309e-21 -3.7090509704e-21 3.5784888044e-01 -3.1278761787e-21 -3.6990901362e-21 2.9467963663e-01 2.1937047790e-23 -9.9608342050e-24 6.3169243810e-02
5.25865            -1.0435100750e-22 -6.6576312237e-22 4.4000275969e-01 -9.5658156898e-23 -6.7077637634e-22 3.7641509362e-01 -8.6928506014e-24 5.0132539732e-24 6.3587666078e-02
5.26801            4.4948723570e-21 4.4975105818e-22 4.9890886351e-01 4.4990495221e-21 4.4865252297e-22 4.3492707889e-01 -4.1771650319e-24 1.0985352075e-24 6.3981784620e-02
5.27736            9.4570909589e-22 -2.8765977340e-21 5.8152441992e-01 9.4568211285e-22 -2.8794607943e-21 5.1719159275e-01 2.6983039292e-26 2.8630602674e-24 6.4332827162e-02
5.28672            -1.2858371990e-22 -1.2735678533e-21 6.6114097769e-01 -1.3687835169e-22 -1.2716387627e-21 5.9648659324e-01 8.2946317920e-24 -1.9290906089e-24 6.4654384453e-02
5.29607            -1.0412153336e-20 6.9382240552e-21 7.5413341004e-01 -1.0430362947e-20 6.9488610868e-21 6.8920530287e-01 1.8209611430e-23 -1.0637031587e-23 6.4928107168e-02
5.30542            3.6117455550e-21 -6.1089999235e-22 8.3182693384e-01 3.6348037206e-21 -6.2579568598e-22 7.6664239617e-01 -2.3058165655e-23 1.4895693637e-23 6.5184537665e-02
5.31477            -3.8130890735e-21 3.6079704971e-21 9.1512047569e-01 -3.8179542787e-21 3.6083339627e-21 8.4970984228e-01 4.8652052167e-24 -3.6346557512e-25 6.5410633405e-02
5.32407            6.0056169818e-22 2.1723694212e-21 1.0057013531e+00 6.0606285598e-22 2.1712486858e-21 9.4008970438e-01 -5.5011578049e-24 1.1207354167e-24 6.5611648702e-02
5.33317            1.9609668309e-21 -2.1999792602e-21 1.0909886703e+00 1.9516446512e-21 -2.1950588188e-21 1.0251712241e+00 9.3221797213e-24 -4.9204414650e-24 6.5817446222e-02
5.34214            -7.5213514220e-21 3.5021713703e-21 1.1708500863e+00 -7.5214885831e-21 3.5016028749e-21 1.1048653866e+00 1.3716111942e-25 5.6849537799e-25 6.5984699775e-02
5.35107            -3.5881419147e-21 4.9758091550e-21 1.2825137516e+00 -3.6102669114e-21 4.9873193655e-21 1.2164018413e+00 2.2124996682e-23 -1.1510210441e-23 6.6111910354e-02
5.36               -4.5793216567e-21 4.6968289705e-21 1.3537024444e+00 -4.5974019484e-21 4.7094916756e-21 1.2875200720e+00 1.8080291773e-23 -1.2662705158e-23 6.6182372343e-02
5.36893            -1.2097343926e-21 3.4777773687e-21 1.4813975650e+00 -1.2154550233e-21 3.4831301078e-21 1.4151906979e+00 5.7206306898e-24 -5.3527391281e-24 6.6206867070e-02
5.37784            -1.8372294415e-21 1.2246064202e-21 1.5817974852e+00 -1.8502421126e-21 1.2332525421e-21 1.5155627621e+00 1.3012671109e-23 -8.6461219283e-24 6.6234723118e-02
5.38674            6.7918385858e-21 -3.4045144880e-21 1.6636553506e+00 6.7839130308e-21 -3.3981471329e-21 1.5974147081e+00 7.9255549820e-24 -6.3673551329e-24 6.6240642494e-02
5.39564            -2.0711045969e-21 2.7330566519e-21 1.7890676083e+00 -2.0684295523e-21 2.7361559006e-21 1.7228598815e+00 -2.6750446785e-24 -3.0992486280e-24 6.6207726736e-02
5.40454            1.6481864611e-21 -2.3692139619e-21 1.8130793145e+00 1.6543343241e-21 -2.3733178095e-21 1.7469610296e+00 -6.1478629700e-24 4.1038475859e-24 6.6118284950e-02
5.41347            -2.8048296514e-21 3.4611343685e-21 1.9832097779e+00 -2.7994997046e-21 3.4579388352e-21 1.9172520379e+00 -5.3299468403e-24 3.1955333184e-24 6.5957739988e-02
5.4224             -1.5578158751e-21 1.8756749062e-21 2.0357405993e+00 -1.5705073063e-21 1.8824965951e-21 1.9698867393e+00 1.2691431198e-23 -6.8216889175e-24 6.5853860004e-02
5.43135            -3.1199047724e-21 -8.2692569116e-22 2.1636302599e+00 -3.1238208378e-21 -8.2800852392e-22 2.0979144586e+00 3.9160653913e-24 1.0828327535e-24 6.5715801312e-02
5.44031            -5.4385521164e-21 4.7314670820e-21 2.2647962539e+00 -5.4566025039e-21 4.7430644275e-21 2.1993021662e+00 1.8050387448e-23 -1.1597345560e-23 6.5494087712e-02
5.4493             4.9052635668e-21 -3.9206982860e-21 2.3912064932e+00 4.9093650149e-21 -3.9226764264e-21 2.3259497084e+00 -4.1014480570e-24 1.9781403763e-24 6.5256784739e-02
5.45829            3.1433872648e-21 -2.2825369094e-21 2.4699452094e+00 3.1430278011e-21 -2.2828305006e-21 2.4049195031e+00 3.5946362944e-25 2.9359117245e-25 6.5025706298e-02
5.4673             -7.2557567844e-21 4.2901632135e-21 2.5505556990e+00 -7.2570557008e-21 4.2897968806e-21 2.4857612990e+00 1.2989163722e-24 3.6633282506e-25 6.4794400013e-02
5.47633            -4.7678233144e-21 2.8373794959e-21 2.6822047549e+00 -4.7706242350e-21 2.8382464686e-21 2.6177077246e+00 2.8009205628e-24 -8.6697268646e-25 6.4497030326e-02
5.48538            -3.1408430907e-21 -1.6864018161e-22 2.6627782605e+00 -3.1408249902e-21 -1.6869704497e-22 2.5986258465e+00 -1.8100496961e-26 5.6863361732e-26 6.4152414067e-02
5.49446            -6.6399098183e-22 1.3824040349e-21 2.9059685754e+00 -6.6852082876e-22 1.3855271211e-21 2.8421265208e+00 4.5298469365e-24 -3.1230861716e-24 6.3842054616e-02
5.50355            1.4184210897e-21 -1.0486804217e-21 2.9064681344e+00 1.4231614921e-21 -1.0514432755e-21 2.8429826398e+00 -4.7404023800e-24 2.7628538559e-24 6.3485494598e-02
5.5127             -1.3529965389e-21 -2.1366005601e-21 3.0572527396e+00 -1.3417721528e-21 -2.1417894852e-21 2.9940992238e+00 -1.1224386137e-23 5.1889251232e-24 6.3153515756e-02
5.52187            -1.9015318771e-21 6.3681779295e-22 3.1483815972e+00 -1.8996673061e-21 6.3617646045e-22 3.0856031806e+00 -1.8645709690e-24 6.4133249161e-25 6.2778416632e-02
5.53107            -1.1790039120e-21 1.2683915399e-21 3.1677786469e+00 -1.1859174666e-21 1.2732906091e-21 3.1054134934e+00 6.9135545694e-24 -4.8990692000e-24 6.2365153486e-02
5.54031            -4.7434250549e-21 3.0089370347e-21 3.3566151182e+00 -4.7468875720e-21 3.0128040901e-21 3.2947211924e+00 3.4625170269e-24 -3.8670554304e-24 6.1893925821e-02
5.54956            -5.5223632566e-21 2.1339603430e-21 3.3855572643e+00 -5.5339164140e-21 2.1399603370e-21 3.3241130871e+00 1.1553157395e-23 -5.9999940745e-24 6.1444177156e-02
5.55886            -6.3357614103e-22 5.6315895501e-22 3.4859064485e+00 -6.2800538847e-22 5.6046215164e-22 3.4249572746e+00 -5.5707525572e-24 2.6968033654e-24 6.0949173856e-02
5.56817            3.5521990211e-21 -3.2338229116e-21 3.5419426688e+00 3.5564835086e-21 -3.2388981312e-21 3.4815326018e+00 -4.2844875466e-24 5.0752196515e-24 6.0410066945e-02
5.57752            3.0269586743e-21 -1.5076995887e-21 3.7150636989e+00 3.0363608840e-21 -1.5147014604e-21 3.6551953411e+00 -9.4022096866e-24 7.0018717682e-24 5.9868357771e-02
5.58689            -3.8117822018e-21 2.3908600007e-21 3.7018479834e+00 -3.8243004910e-21 2.3981589711e-21 3.6425362030e+00 1.2518289250e-23 -7.2989704043e-24 5.9311780461e-02
5.59625            1.6756719667e-21 -1.0364415058e-21 3.7833615931e+00 1.6807191579e-21 -1.0400530716e-21 3.7246042679e+00 -5.0471912753e-24 3.6115658130e-24 5.8757325271e-02
5.60567            -1.9384344448e-22 -8.5978344852e-22 3.8968266077e+00 -1.9100574282e-22 -8.6211334830e-22 3.8386221773e+00 -2.8377016605e-24 2.3298997742e-24 5.8204430349e-02
5.61512            -1.5156985540e-21 1.2067367599e-21 3.8860647296e+00 -1.5293144364e-21 1.2141725863e-21 3.8284605596e+00 1.3615882378e-23 -7.4358263603e-24 5.7604170068e-02
5.62461            -6.1864525974e-22 2.0204654791e-21 4.0606763583e+00 -6.2037578791e-22 2.0248497644e-21 4.0037178560e+00 1.7305281695e-24 -4.3842852555e-24 5.6958502362e-02
5.63414            5.4534420195e-22 6.1229797731e-22 4.0157744712e+00 5.3984298541e-22 6.1777123505e-22 3.9594403495e+00 5.5012165346e-24 -5.4732577343e-24 5.6334121693e-02
5.64372            7.6689410947e-22 -1.4382416487e-21 4.1048055885e+00 7.7172388927e-22 -1.4421838309e-21 4.0491612438e+00 -4.8297798005e-24 3.9421821899e-24 5.5644344634e-02
5.65334            9.2069028845e-22 9.7517900583e-22 4.1810622178e+00 9.1129140162e-22 9.8099577032e-22 4.1261085650e+00 9.3988868275e-24 -5.8167644943e-24 5.4953652757e-02
5.663              -1.6037818156e-21 -2.0174151884e-21 4.2744126477e+00 -1.6038630266e-21 -2.0182958098e-21 4.2201471308e+00 8.1210978164e-26 8.8062147028e-25 5.4265516884e-02
5.67268            2.9757189793e-21 -3.9553362260e-22 4.3211394387e+00 2.9761734187e-21 -3.9521329300e-22 4.2675930982e+00 -4.5443944407e-25 -3.2032959633e-25 5.3546340425e-02
5.68238            -4.8974616844e-22 -1.8186154435e-22 4.3262215354e+00 -4.8748928586e-22 -1.8326292550e-22 4.2733994856e+00 -2.2568825844e-24 1.4013811459e-24 5.2822049811e-02
5.69212            -1.9311027446e-21 -3.9291428400e-22 4.3306897571e+00 -1.9267001061e-21 -3.9774425625e-22 4.2786238175e+00 -4.4026384853e-24 4.8299722515e-24 5.2065939619e-02
5.70187            -3.9069463351e-21 7.3044815015e-22 4.3924841420e+00 -3.9090754307e-21 7.3301598056e-22 4.3412112259e+00 2.1290956382e-24 -2.5678304037e-24 5.1272916116e-02
5.71171            4.3002923415e-21 -1.7116160859e-22 4.4940354344e+00 4.3050907590e-21 -1.7418186154e-22 4.4435436263e+00 -4.7984175331e-24 3.0202529550e-24 5.0491808089e-02
5.72157            -3.0839493860e-21 1.7951213011e-21 4.5312828568e+00 -3.0818899940e-21 1.7924118217e-21 4.4815691024e+00 -2.0593920156e-24 2.7094793694e-24 4.9713754467e-02
5.73147            3.3354686134e-21 -4.4559183618e-22 4.5504119530e+00 3.3433235485e-21 -4.5219530918e-22 4.5014801861e+00 -7.8549350950e-24 6.6034729968e-24 4.8931766911e-02
5.74141            -5.1755563510e-23 9.7082635061e-22 4.5531727171e+00 -6.0359311436e-23 9.8023114779e-22 4.5050351561e+00 8.6037479264e-24 -9.4047971721e-24 4.8137561001e-02
5.7514             -3.2254384670e-21 -2.4289930688e-21 4.5647816573e+00 -3.2223916773e-21 -2.4352920449e-21 4.5174632700e+00 -3.0467896440e-24 6.2989760695e-24 4.7318387290e-02
5.76144            1.0242115594e-21 -1.2287270359e-21 4.5617012932e+00 1.0170433971e-21 -1.2250239480e-21 4.5152229725e+00 7.1681623224e-24 -3.7030878716e-24 4.6478320674e-02
5.77153            -3.1861653154e-21 -1.9345420942e-21 4.5598342697e+00 -3.1861872884e-21 -1.9403467651e-21 4.5141968337e+00 2.1972940081e-26 5.8046709456e-24 4.5637435968e-02
5.78166            -8.8019302730e-23 -5.2969463433e-22 4.5947435812e+00 -9.4656463288e-23 -5.2770171210e-22 4.5499556814e+00 6.6371605576e-24 -1.9929222242e-24 4.4787899866e-02
5.79184            -1.3028113492e-22 -5.2848074809e-22 4.5320371766e+00 -1.2738553833e-22 -5.2859144567e-22 4.4881081344e+00 -2.8955965891e-24 1.1069757686e-25 4.3929042284e-02
5.80205            -7.7471431038e-22 -2.0222981709e-21 4.5881780174e+00 -7.6540551652e-22 -2.0272625368e-21 4.5451276663e+00 -9.3087938656e-24 4.9643658490e-24 4.3050351099e-02
5.81233            -4.1434875743e-22 9.8292801545e-22 4.5561338267e+00 -4.1488680103e-22 9.7699915004e-22 4.5139707017e+00 5.3804359425e-25 5.9288654073e-24 4.2163125046e-02
5.82266            3.7409890288e-21 -3.9834058662e-22 4.5454030409e+00 3.7449160031e-21 -4.0254345962e-22 4.5041313915e+00 -3.9269742849e-24 4.2028730012e-24 4.1271649425e-02
5.83303            3.6359230785e-21 1.5459829843e-21 4.5091771934e+00 3.6348178671e-21 1.5469403593e-21 4.4688133781e+00 1.1052113947e-24 -9.5737498626e-25 4.0363815299e-02
5.84346            6.4334748357e-21 -3.3549185673e-21 4.5102236616e+00 6.4437077481e-21 -3.3645952476e-21 4.4707810928e+00 -1.0232912402e-23 9.6766802631e-24 3.9442568775e-02
5.85394            1.5455992639e-21 4.6549936314e-22 4.5022835977e+00 1.5421632798e-21 4.7301260615e-22 4.4637684974e+00 3.4359841416e-24 -7.5132430101e-24 3.8515100230e-02
5.86445            -3.7954298101e-21 -3.2869342503e-21 4.5056759342e+00 -3.8020194922e-21 -3.2820599169e-21 4.4680960112e+00 6.5896820743e-24 -4.8743334579e-24 3.7579922944e-02
5.87502            -1.2636410064e-21 -1.2929658064e-21 4.4389738594e+00 -1.2626345118e-21 -1.2910185272e-21 4.4023405054e+00 -1.0064945600e-24 -1.9472792050e-24 3.6633354020e-02
5.88565            1.5879639322e-21 1.0834142367e-21 4.3692000777e+00 1.5896988615e-21 1.0809832630e-21 4.3335176133e+00 -1.7349293734e-24 2.4309737299e-24 3.5682464418e-02
5.89635            3.9764638871e-21 1.9988307730e-22 4.2942327557e+00 3.9706248192e-21 2.0331978603e-22 4.2595140006e+00 5.8390678400e-24 -3.4367087263e-24 3.4718755090e-02
5.90711            1.2634887193e-21 -2.5117512867e-22 4.2688293050e+00 1.2615939655e-21 -2.5736958429e-22 4.2350829163e+00 1.8947537488e-24 6.1944556202e-24 3.3746388656e-02
5.91795            3.2826783912e-21 1.5202368692e-21 4.1999146309e+00 3.2780319817e-21 1.5346662875e-21 4.1671501344e+00 4.6464095130e-24 -1.4429418329e-23 3.2764496503e-02
5.92885            -2.8154227629e-21 -3.6580233580e-21 4.1240616931e+00 -2.8063198021e-21 -3.6672930080e-21 4.0922851963e+00 -9.1029608070e-24 9.2696499623e-24 3.1776496846e-02
5.93983            -2.5986882846e-21 -9.1641209638e-22 4.0548315161e+00 -2.6101924645e-21 -9.0178719257e-22 4.0240543853e+00 1.1504179923e-23 -1.4624903811e-23 3.0777130752e-02
5.95089            -4.6207167254e-21 3.0150127935e-21 3.9908412977e+00 -4.6253176060e-21 3.0190837437e-21 3.9610712561e+00 4.6008805426e-24 -4.0709501944e-24 2.9770041632e-02
5.96202            -2.6662635809e-21 5.6006168237e-22 3.8923804659e+00 -2.6690927452e-21 5.6548005224e-22 3.8636343899e+00 2.8291642808e-24 -5.4183698641e-24 2.8746076029e-02
5.97324            -2.4695348294e-21 2.3621386928e-21 3.7973855218e+00 -2.4747704402e-21 2.3625392196e-21 3.7696748038e+00 5.2356107580e-24 -4.0052680130e-25 2.7710718006e-02
5.98454            3.1826223378e-21 4.1146371315e-21 3.7314175672e+00 3.1855020218e-21 4.1210715379e-21 3.7047381595e+00 -2.8796840692e-24 -6.4344064423e-24 2.6679407701e-02
5.99591            -1.4793186196e-21 2.4147901192e-21 3.6405115308e+00 -1.4806913002e-21 2.4191912809e-21 3.6148744180e+00 1.3726806577e-24 -4.4011616324e-24 2.5637112863e-02
6.00735            -1.8557768985e-21 -6.1698512268e-22 3.5306720434e+00 -1.8617595132e-21 -6.2538513096e-22 3.5060828634e+00 5.9826147238e-24 8.4000082852e-24 2.4589180011e-02
6.01892            5.9857526638e-22 7.6345913708e-22 3.3791336270e+00 5.9270455720e-22 7.7868004133e-22 3.3556011909e+00 5.8707091840e-24 -1.5220904248e-23 2.3532436092e-02
6.03061            1.2361487201e-21 8.6273869941e-22 3.3107434040e+00 1.2389383519e-21 8.5773565572e-22 3.2882821480e+00 -2.7896317764e-24 5.0030436898e-24 2.2461255941e-02
6.0424             -2.1364393799e-21 -1.7053353794e-21 3.1731384804e+00 -2.1483104592e-21 -1.7008448076e-21 3.1517588901e+00 1.1871079281e-23 -4.4905718502e-24 2.1379590333e-02
6.05429            -7.7538064329e-22 -7.5074069995e-22 3.0599115846e+00 -7.7362809274e-22 -7.5285541588e-22 3.0396178853e+00 -1.7525505551e-24 2.1147159277e-24 2.0293699399e-02
6.06629            -3.6218659309e-21 -8.7493843613e-22 2.9488886363e+00 -3.6260412230e-21 -8.7205916728e-22 2.9296898731e+00 4.1752921094e-24 -2.8792688485e-24 1.9198763244e-02
6.07841            4.8153072691e-22 1.2033613345e-21 2.8001127870e+00 4.8158253830e-22 1.2052492933e-21 2.7820213649e+00 -5.1811383679e-26 -1.8879587780e-24 1.8091422061e-02
6.09065            1.8139437952e-22 1.1165392835e-21 2.6594656902e+00 1.8127089956e-22 1.1190451120e-21 2.6424911059e+00 1.2347995608e-25 -2.5058284871e-24 1.6974584279e-02
6.10298            1.6884473402e-21 4.0367636988e-21 2.5145370079e+00 1.6938243774e-21 4.0250400037e-21 2.4986861690e+00 -5.3770371332e-24 1.1723695053e-23 1.5850838920e-02
6.1155             1.3050740036e-22 3.9524249145e-22 2.3669134602e+00 1.3061192344e-22 4.0609551731e-22 2.3522033824e+00 -1.0452308040e-25 -1.0853025856e-23 1.4710077865e-02
6.12817            5.1256047711e-22 1.0118468935e-21 2.2256979687e+00 5.1116088736e-22 1.0175458383e-21 2.2121427139e+00 1.3995897514e-24 -5.6989447843e-24 1.3555254767e-02
6.14099            2.7804322195e-22 2.0385053629e-21 2.0726489608e+00 2.7690085710e-22 2.0357107151e-21 2.0602588439e+00 1.1423648566e-24 2.7946478018e-24 1.2390116964e-02
6.15397            -1.2841114700e-21 -2.4839550553e-21 1.9233791357e+00 -1.2821257381e-21 -2.4867131380e-21 1.9121689871e+00 -1.9857319426e-24 2.7580826688e-24 1.1210148551e-02
6.16711            -1.7994648862e-21 -9.5560320945e-22 1.7699387440e+00 -1.8027361700e-21 -9.5832933820e-22 1.7599219236e+00 3.2712837929e-24 2.7261287486e-24 1.0016820400e-02
6.18043            -5.0818767412e-22 -3.2698550923e-22 1.6213424479e+00 -5.0996577819e-22 -3.2896313712e-22 1.6125358605e+00 1.7781040690e-24 1.9776278941e-24 8.8065873169e-03
6.19392            9.9987600714e-23 -6.2000686250e-22 1.4475462308e+00 9.9385877095e-23 -6.2434828520e-22 1.4399645718e+00 6.0172361904e-25 4.3414226992e-24 7.5816590211e-03
6.20756            1.4379389030e-21 6.0544295213e-22 1.2916214488e+00 1.4388994505e-21 5.9790926401e-22 1.2852767468e+00 -9.6054754606e-25 7.5336881236e-24 6.3447019902e-03
6.22147            -7.1302544446e-22 -1.4689617170e-21 1.1364263592e+00 -7.1485279272e-22 -1.4707514221e-21 1.1313420761e+00 1.8273482503e-24 1.7897050152e-24 5.0842830923e-03
6.2356             2.9012802524e-22 2.2884793182e-21 9.6802299038e-01 2.9528979997e-22 2.3006457169e-21 9.6421808660e-01 -5.1617747303e-24 -1.2166398706e-23 3.8049037862e-03
6.24996            5.7523896259e-23 1.1204411286e-21 8.1415899665e-01 5.8467046968e-23 1.1242588938e-21 8.1165404424e-01 -9.4315070821e-25 -3.8177652766e-24 2.5049524051e-03
6.26457            -2.1883830844e-22 -2.1479600716e-22 6.4206029063e-01 -2.2382656657e-22 -2.2709786185e-22 6.4087806711e-01 4.9882581278e-24 1.2301854693e-23 1.1822235145e-03
6.27939            2.4199871331e-22 3.2055192163e-22 4.9127120109e-01 2.3958428674e-22 3.1533027770e-22 4.9142902005e-01 2.4144265708e-24 5.2216439270e-24 -1.5781896634e-04
6.29422            1.4587251952e-21 2.8375351741e-21 3.3880280910e-01 1.4612202864e-21 2.8423063734e-21 3.4029938975e-01 -2.4950911973e-24 -4.7711993579e-24 -1.4965806537e-03
6.30905            -5.8369498162e-22 -8.8822568111e-22 1.8653529000e-01 -5.7597381011e-22 -8.7498333838e-22 1.8937120254e-01 -7.7211715093e-24 -1.3242342733e-23 -2.8359125352e-03
6.3239             5.7136895121e-22 8.6213183629e-22 4.5613617268e-02 5.7184633907e-22 8.6177025798e-22 4.9788647870e-02 -4.7738785693e-25 3.6157830640e-25 -4.1750306018e-03
6.33876            -6.2073892819e-22 -1.1696229680e-21 -8.5531566329e-02 -6.2438770810e-22 -1.1766021592e-21 -8.0015117193e-02 3.6487799091e-24 6.9791912146e-24 -5.5164491360e-03
6.35363            -6.7680304801e-22 -5.6059831081e-22 -2.1871438704e-01 -6.7168400543e-22 -5.5295483226e-22 -2.1185523935e-01 -5.1190425830e-24 -7.6434785560e-24 -6.8591476858e-03
6.36854            1.6609978010e-22 -9.7421156022e-22 -3.4395193088e-01 1.6530324852e-22 -9.7804565649e-22 -3.3574663630e-01 7.9653157685e-25 3.8340962714e-24 -8.2052945797e-03
6.38345            -1.4664722333e-21 -4.0429652833e-22 -4.5819459959e-01 -1.4659730249e-21 -4.0123472813e-22 -4.4864313368e-01 -4.9920845644e-25 -3.0618001991e-24 -9.5514659110e-03
6.39836            7.0089471197e-22 -1.1613118108e-22 -5.7580396408e-01 7.0141758709e-22 -1.1664102792e-22 -5.6490699278e-01 -5.2287512182e-25 5.0984684303e-25 -1.0896971304e-02
6.41336            -2.6716505512e-23 -6.0850209761e-22 -6.7110244352e-01 -2.7299451459e-23 -6.0775904584e-22 -6.5885242275e-01 5.8294594674e-25 -7.4305176439e-25 -1.2250020772e-02
6.42841            4.1520281143e-22 5.9009317163e-22 -7.7271455522e-01 4.1933212961e-22 5.9446174050e-22 -7.5910882066e-01 -4.1293181744e-24 -4.3685688687e-24 -1.3605734551e-02
6.44352            1.5290817982e-22 -4.8569816938e-22 -8.6072018981e-01 1.4740840177e-22 -4.9152354909e-22 -8.4575231718e-01 5.4997780512e-24 5.8253797082e-24 -1.4967872633e-02
6.45869            3.7547950048e-22 -9.4499476822e-22 -9.4428907739e-01 3.7696496152e-22 -9.4401669777e-22 -9.2795481421e-01 -1.4854610379e-24 -9.7807044991e-25 -1.6334263182e-02
6.47392            -7.3719492207e-22 8.0831642576e-22 -1.0245182832e+00 -7.3816181931e-22 8.0883970931e-22 -1.0068135118e+00 9.6689724318e-25 -5.2328354856e-25 -1.7704771368e-02
6.48917            1.4741314074e-21 2.2559394939e-21 -1.0927413637e+00 1.4667065484e-21 2.2478965002e-21 -1.0736693901e+00 7.4248590153e-24 8.0429936854e-24 -1.9071973572e-02
6.50447            1.1360123712e-21 1.8494403215e-21 -1.1575595331e+00 1.1400532292e-21 1.8553977006e-21 -1.1371195060e+00 -4.0408580545e-24 -5.9573791807e-24 -2.0440027124e-02
6.51993            1.0942026905e-21 1.9078837915e-21 -1.2151175472e+00 1.0949945970e-21 1.9108013585e-21 -1.1932963305e+00 -7.9190647153e-25 -2.9175670114e-24 -2.1821216768e-02
6.53547            4.8325182873e-22 1.9713321019e-21 -1.2703147376e+00 4.8067310868e-22 1.9721489704e-21 -1.2471121473e+00 2.5787200459e-24 -8.1686840905e-25 -2.3202590307e-02
6.55111            -1.7132494397e-21 -8.6220666538e-22 -1.3162874043e+00 -1.7079249978e-21 -8.5673150712e-22 -1.2917024925e+00 -5.3244418532e-24 -5.4751582614e-24 -2.4584911753e-02
6.56684            1.7962139056e-21 9.3744497105e-22 -1.3683743647e+00 1.7982911072e-21 9.3615257142e-22 -1.3424009354e+00 -2.0772015437e-24 1.2923996334e-24 -2.5973429241e-02
6.58268            -1.5593546606e-21 -9.1785838619e-22 -1.3971092627e+00 -1.5586374197e-21 -9.1537784856e-22 -1.3697517589e+00 -7.1724092233e-25 -2.4805376298e-24 -2.7357503848e-02
6.59857            -2.6254810796e-22 1.5030109600e-23 -1.4333283447e+00 -2.5876350402e-22 1.9334244988e-23 -1.4045863768e+00 -3.7846039458e-24 -4.3041353882e-24 -2.8741967880e-02
6.61459            -1.9123991424e-21 -1.1952350564e-21 -1.4634867381e+00 -1.9275214878e-21 -1.2066208977e-21 -1.4333638247e+00 1.5122345358e-23 1.1385841340e-23 -3.0122913375e-02
6.63073            1.7167588304e-21 1.1148826769e-21 -1.4910114116e+00 1.7224933318e-21 1.1174767585e-21 -1.4595069510e+00 -5.7345013600e-24 -2.5940815799e-24 -3.1504460625e-02
6.64697            1.5733819478e-21 9.1723715661e-22 -1.5157215917e+00 1.5788448604e-21 9.2223603952e-22 -1.4828200421e+00 -5.4629125759e-24 -4.9988829055e-24 -3.2901549664e-02
6.66326            -1.3782768314e-21 -1.8620609158e-23 -1.5357459532e+00 -1.3717688758e-21 -1.3928133073e-23 -1.5014708844e+00 -6.5079556056e-24 -4.6924760853e-24 -3.4275068719e-02
6.67962            1.1859809237e-22 1.5892496689e-22 -1.5522332905e+00 1.1683631864e-22 1.5690699160e-22 -1.5166141599e+00 1.7617737286e-24 2.0179752891e-24 -3.5619130599e-02
6.69606            7.5126309899e-23 -1.0651474138e-21 -1.5694979687e+00 7.7202486270e-23 -1.0649655022e-21 -1.5325635030e+00 -2.0761763704e-24 -1.8191163625e-25 -3.6934465642e-02
6.71258            1.4630357362e-21 8.3659473820e-22 -1.5879622889e+00 1.4643920884e-21 8.3667151291e-22 -1.5497353798e+00 -1.3563522879e-24 -7.6774714946e-26 -3.8226909078e-02
6.72921            3.9885824771e-22 7.1499705600e-23 -1.6012404397e+00 3.8517240610e-22 6.1146317014e-23 -1.5617423480e+00 1.3685841601e-23 1.0353388585e-23 -3.9498091676e-02
6.74592            -2.0814195982e-21 -2.4381049890e-21 -1.6144550619e+00 -2.0885377392e-21 -2.4427499570e-21 -1.5737158707e+00 7.1181409519e-24 4.6449679701e-24 -4.0739191191e-02
6.76271            -1.0687848690e-23 1.4237424015e-22 -1.6278821351e+00 3.5030778918e-24 1.5119526160e-22 -1.5859342380e+00 -1.4190926582e-23 -8.8210214554e-24 -4.1947897123e-02
6.77958            1.6418934116e-21 9.8611650933e-22 -1.6418216001e+00 1.6371671015e-21 9.8414622786e-22 -1.5986948884e+00 4.7263100490e-24 1.9702814688e-24 -4.3126711623e-02
6.79646            1.0590828543e-21 7.9083085904e-22 -1.6592541006e+00 1.0592763012e-21 7.9000065087e-22 -1.6149949294e+00 -1.9344685616e-25 8.3020816804e-25 -4.4259171244e-02
6.81345            -5.0349259921e-22 -3.3334368212e-22 -1.6746518477e+00 -5.1149799200e-22 -3.3751743429e-22 -1.6293045453e+00 8.0053927977e-24 4.1737521717e-24 -4.5347302384e-02
6.83054            -2.4689476796e-22 2.6783562291e-22 -1.6888424261e+00 -2.4382671250e-22 2.7016295478e-22 -1.6424437692e+00 -3.0680554619e-24 -2.3273318658e-24 -4.6398656932e-02
6.84765            1.4065682042e-21 -4.2208903142e-23 -1.7055273824e+00 1.3954582123e-21 -4.7920896780e-23 -1.6581209193e+00 1.1109991974e-23 5.7119936379e-24 -4.7406463089e-02
6.86476            -6.4873835322e-23 7.0231126321e-22 -1.7243602842e+00 -6.1989797780e-23 7.0407938546e-22 -1.6759927213e+00 -2.8840375426e-24 -1.7681222450e-24 -4.8367562906e-02
6.88186            -3.9324172890e-21 -1.8663440749e-21 -1.7407925110e+00 -3.9509604794e-21 -1.8752165320e-21 -1.6915204028e+00 1.8543190367e-23 8.8724571458e-24 -4.9272108140e-02
6.89897            1.6661770779e-22 3.9199475782e-22 -1.7581220618e+00 1.7678400802e-22 3.9785881411e-22 -1.7080073881e+00 -1.0166300223e-23 -5.8640562906e-24 -5.0114673728e-02
6.91601            -2.8173525382e-22 -1.4049894629e-22 -1.7790281049e+00 -2.9216842244e-22 -1.4724610144e-22 -1.7281506352e+00 1.0433168624e-23 6.7471551506e-24 -5.0877469744e-02
6.933              2.7949528454e-21 1.7624949650e-21 -1.8012460536e+00 2.7967342937e-21 1.7644503979e-21 -1.7496637881e+00 -1.7814482934e-24 -1.9554329653e-24 -5.1582265550e-02