# Force and moment coefficients
# dragDir         : (9.8480776069e-01 1.7364813413e-01 0.0000000000e+00)
# sideDir         : (0.0000000000e+00 0.0000000000e+00 -1.0000000000e+00)
# liftDir         : (-1.7364813413e-01 9.8480776069e-01 0.0000000000e+00)
# rollAxis        : (9.8480776069e-01 1.7364813413e-01 0.0000000000e+00)
# pitchAxis       : (0.0000000000e+00 0.0000000000e+00 -1.0000000000e+00)
# yawAxis         : (-1.7364813413e-01 9.8480776069e-01 0.0000000000e+00)
# magUInf         : 1.4600000000e+01
# lRef            : 1.0000000000e+00
# Aref            : 1.0000000000e+00
# CofR            : (0.0000000000e+00 0.0000000000e+00 0.0000000000e+00)
#
# Time            	Cd                	Cd(f)             	Cd(r)             	Cl                	Cl(f)             	Cl(r)             	CmPitch           	CmRoll            	CmYaw             	Cs                	Cs(f)             	Cs(r)             
0.00025014        	-4.8512317982e+09	-2.4256158991e+09	-2.4256158991e+09	-1.0205624135e+10	-5.7726319813e+09	-4.4329921534e+09	-6.6981991394e+08	1.3488970162e-11	1.2931764896e-11	3.9398685714e-11	3.2631107753e-11	6.7675779605e-12
