# Force and moment coefficients
# dragDir         : (9.8480776069e-01 1.7364813413e-01 0.0000000000e+00)
# sideDir         : (0.0000000000e+00 0.0000000000e+00 -1.0000000000e+00)
# liftDir         : (-1.7364813413e-01 9.8480776069e-01 0.0000000000e+00)
# rollAxis        : (9.8480776069e-01 1.7364813413e-01 0.0000000000e+00)
# pitchAxis       : (0.0000000000e+00 0.0000000000e+00 -1.0000000000e+00)
# yawAxis         : (-1.7364813413e-01 9.8480776069e-01 0.0000000000e+00)
# magUInf         : 1.4600000000e+01
# lRef            : 1.0000000000e+00
# Aref            : 1.0000000000e+00
# CofR            : (0.0000000000e+00 0.0000000000e+00 0.0000000000e+00)
#
# Time            	Cd                	Cd(f)             	Cd(r)             	Cl                	Cl(f)             	Cl(r)             	CmPitch           	CmRoll            	CmYaw             	Cs                	Cs(f)             	Cs(r)             
0.00025014        	-4.8512317982e+09	-2.4256158991e+09	-2.4256158991e+09	-1.0205624135e+10	-5.7726319813e+09	-4.4329921534e+09	-6.6981991394e+08	1.3488970162e-11	1.2931764896e-11	3.9398685714e-11	3.2631107753e-11	6.7675779605e-12
0.000250152       	-1.7443909886e+08	-8.7219549429e+07	-8.7219549429e+07	-3.6768134876e+08	-2.1181693521e+08	-1.5586441355e+08	-2.7976260829e+07	3.6837291648e-13	6.1186786983e-13	-3.6211056601e-12	-1.1986849602e-12	-2.4224206999e-12
0.00025023        	6.7413085297e+05	3.3706542648e+05	3.3706542648e+05	2.6552850883e+06	2.0178934701e+06	6.3739161823e+05	6.9025092593e+05	4.3074021781e-15	4.8152777145e-15	3.1472510726e-14	2.0551533077e-14	1.0920977648e-14
0.000250518       	1.5503606057e+06	7.7518030286e+05	7.7518030286e+05	3.2175682088e+06	1.8247109202e+06	1.3928572886e+06	2.1592681578e+05	4.7647290027e-16	5.3639293792e-17	-5.2528636212e-15	-2.5727925168e-15	-2.6800711044e-15
0.00025089        	2.9955493245e+05	1.4977746623e+05	1.4977746623e+05	6.0098251174e+05	3.2927013663e+05	2.7171237511e+05	2.8778880761e+04	-3.9862328672e-17	4.7650980276e-16	-1.3798248560e-14	-6.4226144773e-15	-7.3756340828e-15
0.000251303       	-6.6600073712e+04	-3.3300036856e+04	-3.3300036856e+04	-1.0799496432e+05	-5.0261024160e+04	-5.7733940164e+04	3.7364580017e+03	-8.2008611536e-18	2.6970452552e-18	-1.7133543565e-17	-5.8697265273e-18	-1.1263817038e-17
0.000251739       	-1.7651163952e+04	-8.8255819760e+03	-8.8255819760e+03	-1.5345805425e+04	-3.3913478881e+03	-1.1954457537e+04	4.2815548244e+03	6.4596746146e-18	1.4056446319e-17	2.9261783846e-17	2.8687338242e-17	5.7444560431e-19
0.000252203       	-2.0450735961e+04	-1.0225367980e+04	-1.0225367980e+04	-2.2069459130e+04	-6.9615198309e+03	-1.5107939299e+04	4.0732097342e+03	-2.1165353779e-18	3.4503678322e-18	-1.3025665468e-16	-6.1677959510e-17	-6.8578695174e-17
0.00025271        	-1.9495551167e+04	-9.7477755833e+03	-9.7477755833e+03	-2.0090829862e+04	-5.8711275853e+03	-1.4219702277e+04	4.1742873456e+03	1.4251929919e-17	1.2312356369e-17	3.5024022779e-17	2.9824367758e-17	5.1996550208e-18
0.000253263       	-1.8961878556e+04	-9.4809392780e+03	-9.4809392780e+03	-2.0081690709e+04	-6.0515279655e+03	-1.4030162743e+04	3.9893173888e+03	1.2038565169e-17	1.7016224095e-17	9.6738261103e-17	6.5385354647e-17	3.1352906456e-17
0.000253827       	-1.8906516818e+04	-9.4532584090e+03	-9.4532584090e+03	-1.9871661889e+04	-5.7663165836e+03	-1.4105345306e+04	4.1695143611e+03	8.7679443059e-18	1.4952731585e-17	-6.8153395755e-19	1.4611964607e-17	-1.5293498564e-17
0.000254403       	-1.8660328583e+04	-9.3301642917e+03	-9.3301642917e+03	-1.9646021483e+04	-5.7038380132e+03	-1.3942183470e+04	4.1191727282e+03	-1.2785992846e-18	-1.2637662664e-18	-6.0563658879e-17	-3.1545595706e-17	-2.9018063173e-17
0.000254994       	-1.8411401951e+04	-9.2057009757e+03	-9.2057009757e+03	-1.9050595156e+04	-5.8259991760e+03	-1.3224595980e+04	3.6992984021e+03	1.7303165674e-17	1.8713655481e-17	-1.8482012958e-17	9.4726490015e-18	-2.7954661960e-17
0.000255604       	-1.7650531541e+04	-8.8252657703e+03	-8.8252657703e+03	-1.7800896256e+04	-5.5543945035e+03	-1.2246501752e+04	3.3460536243e+03	1.2572618886e-17	1.4013684585e-17	1.4921245008e-17	2.1474307089e-17	-6.5530620809e-18
0.000256243       	-1.5838764287e+04	-7.9193821437e+03	-7.9193821437e+03	-1.5821768225e+04	-4.9291059977e+03	-1.0892662227e+04	2.9817781145e+03	-2.1586926846e-17	-2.1825551500e-17	-1.6981651736e-16	-1.0673381018e-16	-6.3082707180e-17
0.000256903       	-1.3987533701e+04	-6.9937668505e+03	-6.9937668505e+03	-1.3856955801e+04	-4.1613210208e+03	-9.6956347805e+03	2.7671568798e+03	1.3604595016e-17	1.7378807037e-17	6.7283519176e-17	5.1020566625e-17	1.6262952551e-17
0.000257576       	-1.2503397064e+04	-6.2516985319e+03	-6.2516985319e+03	-1.1532779070e+04	-3.2754638618e+03	-8.2573152080e+03	2.4909256731e+03	-7.9585973565e-19	-4.0398518957e-18	-2.7370474591e-17	-1.7725089191e-17	-9.6453854000e-18
0.000258271       	-1.1598963783e+04	-5.7994818915e+03	-5.7994818915e+03	-9.7167721229e+03	-2.6216114240e+03	-7.0951606989e+03	2.2367746375e+03	1.9145364175e-17	2.0746733128e-17	5.8008802988e-17	4.9751134622e-17	8.2576683654e-18
0.000258979       	-1.0580892860e+04	-5.2904464302e+03	-5.2904464302e+03	-8.8636038498e+03	-2.3105227031e+03	-6.5530811466e+03	2.1212792217e+03	-1.4631080679e-18	7.4827396251e-19	3.2536534886e-17	1.7016541406e-17	1.5519993481e-17
0.0002597         	-9.7506405229e+03	-4.8753202614e+03	-4.8753202614e+03	-8.2458703016e+03	-2.1753965571e+03	-6.0704737445e+03	1.9475385937e+03	6.9321199854e-18	7.0109770191e-18	3.9301951099e-18	8.9760745741e-18	-5.0458794641e-18
0.00026044        	-8.9105696673e+03	-4.4552848337e+03	-4.4552848337e+03	-7.5440797421e+03	-1.9820363420e+03	-5.5620434001e+03	1.7900035290e+03	-7.4922486467e-18	-7.9370165845e-18	-2.1450850561e-17	-1.8662441865e-17	-2.7884086960e-18
0.0002612         	-8.6853999749e+03	-4.3426999874e+03	-4.3426999874e+03	-7.3788163990e+03	-1.9837486715e+03	-5.3950677275e+03	1.7056595280e+03	4.0073794500e-18	3.8340376818e-18	9.2168776681e-19	4.2948815652e-18	-3.3731937984e-18
0.000261972       	-8.9744893738e+03	-4.4872446869e+03	-4.4872446869e+03	-7.5884216251e+03	-2.1303064795e+03	-5.4581151456e+03	1.6639043330e+03	-2.1380676013e-18	-3.0505687460e-18	-5.8905905642e-18	-5.9958640281e-18	1.0527346386e-19
0.000262762       	-8.7585569555e+03	-4.3792784777e+03	-4.3792784777e+03	-7.3164361983e+03	-2.0314973208e+03	-5.2849388775e+03	1.6267207783e+03	3.3829872533e-18	4.0179547088e-18	-1.2530844009e-17	-2.2474672956e-18	-1.0283376713e-17
0.000263561       	-8.5305565318e+03	-4.2652782659e+03	-4.2652782659e+03	-7.1620163037e+03	-1.8923085954e+03	-5.2697077083e+03	1.6886995564e+03	2.5805900087e-18	3.2963765894e-18	2.1114330404e-18	4.3520931096e-18	-2.2406600692e-18
0.000264365       	-8.2073376435e+03	-4.1036688218e+03	-4.1036688218e+03	-6.8484388075e+03	-1.7318132420e+03	-5.1166255656e+03	1.6924061618e+03	-1.6215572537e-18	-1.7183586686e-18	2.2524186941e-18	-5.9214932149e-19	2.8445680156e-18
0.000265182       	-7.8155989186e+03	-3.9077994593e+03	-3.9077994593e+03	-6.4203680275e+03	-1.6139191860e+03	-4.8064488415e+03	1.5962648278e+03	1.4328480360e-18	1.1868254180e-18	2.0931058683e-18	2.2333783522e-18	-1.4027248387e-19
0.000266019       	-7.6774067904e+03	-3.8387033952e+03	-3.8387033952e+03	-6.3120890348e+03	-1.6292926053e+03	-4.6827964294e+03	1.5267519120e+03	-1.3726299825e-20	-2.4963385608e-19	2.9801638929e-18	1.2404480904e-18	1.7397158025e-18
0.000266886       	-7.5975419864e+03	-3.7987709932e+03	-3.7987709932e+03	-6.3299884439e+03	-1.7499916318e+03	-4.5799968121e+03	1.4150025902e+03	1.9961674284e-18	1.5958211595e-18	1.5225958655e-18	2.3571190923e-18	-8.3452322675e-19
0.000267772       	-7.5333282661e+03	-3.7666641330e+03	-3.7666641330e+03	-6.3512559302e+03	-1.8181584001e+03	-4.5330975300e+03	1.3574695649e+03	-2.4544262933e-18	-2.2685094610e-18	1.0005832612e-17	2.7344068452e-18	7.2714257672e-18
0.000268672       	-6.7930676728e+03	-3.3965338364e+03	-3.3965338364e+03	-5.5658813108e+03	-1.6036671564e+03	-3.9622141544e+03	1.1792734990e+03	1.4304808311e-18	2.0006035412e-18	6.4231313757e-18	5.2121692291e-18	1.2109621467e-18
0.000269596       	-6.1972718076e+03	-3.0986359038e+03	-3.0986359038e+03	-4.9322210697e+03	-1.4222468152e+03	-3.5099742545e+03	1.0438637197e+03	4.9893406691e-19	1.1143376664e-18	4.4255339012e-18	3.3271046170e-18	1.0984292842e-18
0.000270557       	-5.7976614532e+03	-2.8988307266e+03	-2.8988307266e+03	-4.5296948287e+03	-1.2857644839e+03	-3.2439303448e+03	9.7908293048e+02	-1.2473592784e-18	-1.5428350713e-18	-1.1656420864e-17	-7.3710455034e-18	-4.2853753608e-18
0.000271528       	-5.5830453868e+03	-2.7915226934e+03	-2.7915226934e+03	-4.3500643703e+03	-1.2138131840e+03	-3.1362511863e+03	9.6121900116e+02	-2.0348270590e-18	-2.5147978500e-18	-1.9019970026e-17	-1.2024782863e-17	-6.9951871631e-18
0.000272514       	-5.3706880502e+03	-2.6853440251e+03	-2.6853440251e+03	-4.1600831074e+03	-1.1307744580e+03	-3.0293086494e+03	9.4926709569e+02	3.3310223313e-18	3.3188390371e-18	-1.3799835453e-18	2.6288472644e-18	-4.0088308098e-18
0.000273519       	-5.2492232919e+03	-2.6246116459e+03	-2.6246116459e+03	-4.0629990328e+03	-1.0901521113e+03	-2.9728469215e+03	9.4134740510e+02	-1.5609172106e-18	-1.8253048709e-18	3.0994995909e-18	-2.7555507543e-19	3.3750546663e-18
0.000274552       	-5.0366771561e+03	-2.5183385781e+03	-2.5183385781e+03	-3.8010216550e+03	-9.9176326436e+02	-2.8092583907e+03	9.0874756315e+02	-5.8880885504e-19	-9.3296903810e-19	1.1301783712e-17	4.7179228181e-18	6.5838608943e-18
0.000275619       	-4.8229821001e+03	-2.4114910500e+03	-2.4114910500e+03	-3.5732722822e+03	-9.1652112400e+02	-2.6567511582e+03	8.7011501708e+02	-1.3910156564e-18	-1.6573171374e-18	-2.1541869003e-18	-2.7344105875e-18	5.8022368722e-19
0.00027672        	-4.9328291637e+03	-2.4664145818e+03	-2.4664145818e+03	-3.7267994153e+03	-1.0013838839e+03	-2.7254155314e+03	8.6201582376e+02	-1.9319676352e-18	-2.3330412960e-18	2.8195007979e-19	-2.1920662561e-18	2.4740163359e-18
0.000277857       	-4.6406118484e+03	-2.3203059242e+03	-2.3203059242e+03	-3.4175133792e+03	-9.0694267436e+02	-2.5105707049e+03	8.0181401525e+02	1.7547429794e-19	5.3245825831e-19	-7.5713020574e-18	-3.2531927704e-18	-4.3181092870e-18
0.000279011       	-4.3020273318e+03	-2.1510136659e+03	-2.1510136659e+03	-3.0721173096e+03	-7.9720020326e+02	-2.2749171064e+03	7.3885845155e+02	9.2045407016e-19	1.1094392597e-18	-6.3146728796e-18	-2.0478971801e-18	-4.2667756995e-18
0.000280185       	-4.1138748973e+03	-2.0569374486e+03	-2.0569374486e+03	-2.8963790429e+03	-7.4793175467e+02	-2.1484472882e+03	7.0025776675e+02	-2.3164511611e-19	-1.8074686465e-19	1.5588941627e-18	5.9870021670e-19	9.6019394600e-19
0.000281383       	-4.0410781754e+03	-2.0205390877e+03	-2.0205390877e+03	-2.8274696405e+03	-7.3324484145e+02	-2.0942247990e+03	6.8048997878e+02	-1.5586680868e-18	-1.6236934771e-18	1.4930101159e-18	-8.7718841914e-19	2.3701985351e-18
0.000282608       	-3.8875064507e+03	-1.9437532253e+03	-1.9437532253e+03	-2.6668377973e+03	-6.7589508653e+02	-1.9909427108e+03	6.5752381214e+02	1.9828443142e-18	1.7944022724e-18	7.7348082645e-18	5.6618064047e-18	2.0730018599e-18
0.00028386        	-3.7591128609e+03	-1.8795564305e+03	-1.8795564305e+03	-2.5416693755e+03	-6.4275058441e+02	-1.8989187911e+03	6.2808410334e+02	2.3403359810e-18	1.8857674624e-18	7.0922781116e-18	5.4319065182e-18	1.6603715934e-18
0.000285122       	-3.8118530899e+03	-1.9059265449e+03	-1.9059265449e+03	-2.6023662210e+03	-6.8445810986e+02	-1.9179081112e+03	6.1672500066e+02	1.2449854708e-18	1.4930733364e-18	1.1659178446e-18	2.0760322587e-18	-9.1011441406e-19
0.000286399       	-3.6839231510e+03	-1.8419615755e+03	-1.8419615755e+03	-2.4950356786e+03	-6.8899820846e+02	-1.8060374702e+03	5.5851963085e+02	-1.9040819770e-18	4.4143682636e-19	-3.4542129770e-17	-1.6829628059e-17	-1.7712501711e-17
0.000287696       	-3.4436410381e+03	-1.7218205190e+03	-1.7218205190e+03	-2.2640563922e+03	-6.1406459864e+02	-1.6499917935e+03	5.1796359745e+02	1.9354159964e-18	2.3005247757e-18	-1.2225547012e-18	1.6892474252e-18	-2.9118021263e-18
0.000289015       	-3.3105850571e+03	-1.6552925286e+03	-1.6552925286e+03	-2.1245583097e+03	-5.6867483328e+02	-1.5558834764e+03	4.9360432155e+02	-2.9179002563e-18	-1.1163181309e-18	-3.2465157606e-17	-1.7348896934e-17	-1.5116260672e-17
0.000290359       	-3.1763175066e+03	-1.5881587533e+03	-1.5881587533e+03	-1.9507414913e+03	-5.0054501580e+02	-1.4501964755e+03	4.7482572987e+02	-2.1678804000e-18	-2.1774701200e-18	-1.5530816394e-17	-9.9428783169e-18	-5.5879380770e-18
0.000291727       	-2.9542478974e+03	-1.4771239487e+03	-1.4771239487e+03	-1.7310700573e+03	-4.3561506171e+02	-1.2954549956e+03	4.2991996693e+02	-3.1659763851e-18	-3.0987102395e-18	-8.3996322103e-18	-7.2985263446e-18	-1.1011058657e-18
0.00029312        	-2.8495021434e+03	-1.4247510717e+03	-1.4247510717e+03	-1.6431861039e+03	-3.9456764548e+02	-1.2486184584e+03	4.2702540648e+02	1.8270040104e-18	1.2059077879e-18	-4.7090850592e-19	9.7045353492e-19	-1.4413620408e-18
0.000294539       	-2.8933170447e+03	-1.4466585223e+03	-1.4466585223e+03	-1.7027323346e+03	-3.9889144332e+02	-1.3038408913e+03	4.5247472398e+02	-6.4042374964e-19	-8.7763338289e-19	-4.4147475666e-18	-3.0850071662e-18	-1.3297404004e-18
0.000295983       	-2.7548165851e+03	-1.3774082926e+03	-1.3774082926e+03	-1.5652371384e+03	-3.6307722995e+02	-1.2021599084e+03	4.1954133924e+02	1.6901423971e-18	1.0425768657e-18	1.3181983062e-18	1.7016760188e-18	-3.8347771260e-19
0.00029744        	-2.6462554057e+03	-1.3231277029e+03	-1.3231277029e+03	-1.4735317702e+03	-3.4944484117e+02	-1.1240869290e+03	3.8732104393e+02	-1.6052815980e-18	-1.2919579983e-18	-3.6343924695e-18	-3.1091542330e-18	-5.2523823647e-19
0.000298906       	-2.7199492007e+03	-1.3599746004e+03	-1.3599746004e+03	-1.5626647747e+03	-3.8373037831e+02	-1.1789343964e+03	3.9760200903e+02	4.1665588508e-18	4.9649311475e-18	-9.9010461739e-18	1.4408060540e-20	-9.9154542344e-18
0.000300384       	-2.6932066021e+03	-1.3466033011e+03	-1.3466033011e+03	-1.5627863362e+03	-4.1488588365e+02	-1.1479004526e+03	3.6650728447e+02	-1.1719249755e-19	-1.2863224291e-19	-9.4742648912e-18	-4.8657646885e-18	-4.6085002027e-18
0.000301874       	-2.5790452874e+03	-1.2895226437e+03	-1.2895226437e+03	-1.4779187987e+03	-4.1616400360e+02	-1.0617547951e+03	3.2279539577e+02	-1.1524176503e-18	-2.5094446203e-19	-1.0224850656e-17	-5.3633697902e-18	-4.8614808662e-18
0.00030338        	-2.5034628597e+03	-1.2517314299e+03	-1.2517314299e+03	-1.4114385977e+03	-3.9433191600e+02	-1.0171066817e+03	3.1138738286e+02	-7.3080762861e-19	-9.7128158953e-19	-9.7492019670e-18	-5.8458825730e-18	-3.9033193940e-18
0.000304904       	-2.5292610823e+03	-1.2646305412e+03	-1.2646305412e+03	-1.4438169685e+03	-4.0039321076e+02	-1.0434237577e+03	3.2151527348e+02	2.3374586263e-18	2.6357866621e-18	4.0857783765e-18	4.6786758504e-18	-5.9289747387e-19
0.00030645        	-2.5710482285e+03	-1.2855241143e+03	-1.2855241143e+03	-1.4995384340e+03	-4.1838403487e+02	-1.0811543992e+03	3.3138518215e+02	1.0791728074e-18	1.0053158561e-18	2.2110822839e-18	2.1108569981e-18	1.0022528581e-19
0.000308019       	-2.5224233067e+03	-1.2612116534e+03	-1.2612116534e+03	-1.4639088539e+03	-4.2099088687e+02	-1.0429179670e+03	3.1096354009e+02	4.3340182739e-19	5.9262261123e-19	5.1037165841e-18	3.1444809033e-18	1.9592356808e-18
0.000309614       	-2.4969278396e+03	-1.2484639198e+03	-1.2484639198e+03	-1.4465987780e+03	-4.2250477019e+02	-1.0240940078e+03	3.0079461883e+02	-8.1075116152e-19	-7.4992193326e-19	-2.7825435512e-18	-2.1411937089e-18	-6.4134984234e-19
0.000311216       	-2.4834638588e+03	-1.2417319294e+03	-1.2417319294e+03	-1.4296772352e+03	-4.2166053719e+02	-1.0080166981e+03	2.9317808043e+02	6.7115857959e-19	5.2985759265e-19	5.7923482482e-20	5.5881933389e-19	-5.0089585141e-19
0.00031282        	-2.3018034846e+03	-1.1509017423e+03	-1.1509017423e+03	-1.2439437840e+03	-3.5246388156e+02	-8.9147990244e+02	2.6950801044e+02	1.0364274458e-18	1.0542129512e-18	-3.2140212323e-18	-5.5279766498e-19	-2.6612235673e-18
0.000314425       	-2.2379276770e+03	-1.1189638385e+03	-1.1189638385e+03	-1.1804925974e+03	-3.2805722218e+02	-8.5243537518e+02	2.6218907650e+02	3.0981265459e-19	5.8659240258e-19	-1.2380888021e-18	-3.2451998469e-20	-1.2056368036e-18
0.000316034       	-2.2307348042e+03	-1.1153674021e+03	-1.1153674021e+03	-1.1938568373e+03	-3.3493436696e+02	-8.5892247029e+02	2.6199405167e+02	-3.3962501158e-20	8.8222495355e-20	-1.2376579213e-18	-5.3060646532e-19	-7.0705145603e-19
0.00031765        	-2.1980734236e+03	-1.0990367118e+03	-1.0990367118e+03	-1.1755303263e+03	-3.4103143039e+02	-8.3449889590e+02	2.4673373276e+02	-2.3535244950e-18	-2.4461823746e-18	-1.2141822501e-18	-3.0532734997e-18	1.8390912496e-18
0.000319276       	-2.2122506726e+03	-1.1061253363e+03	-1.1061253363e+03	-1.1932878541e+03	-3.5458683099e+02	-8.3870102308e+02	2.4205709604e+02	4.1845065163e-19	5.9749951284e-19	3.2464408477e-18	2.2207199367e-18	1.0257209110e-18
0.000320919       	-2.2259976745e+03	-1.1129988372e+03	-1.1129988372e+03	-1.2112167632e+03	-3.5634738541e+02	-8.5486937775e+02	2.4926099617e+02	2.1081238616e-18	2.3431764668e-18	1.8246425404e-18	3.2554977370e-18	-1.4308551966e-18
0.000322583       	-2.2087005097e+03	-1.1043502549e+03	-1.1043502549e+03	-1.2000317450e+03	-3.5580451695e+02	-8.4422722807e+02	2.4421135556e+02	-4.8626979536e-19	-7.2361233778e-19	-3.1717090807e-18	-2.3094668781e-18	-8.6224220259e-19
0.000324269       	-2.1218731024e+03	-1.0609365512e+03	-1.0609365512e+03	-1.1214259200e+03	-3.4233497342e+02	-7.7909094663e+02	2.1837798660e+02	-4.6049849104e-20	-2.5117758270e-19	2.5981822999e-18	1.0479135673e-18	1.5502687327e-18
0.000325982       	-2.0144157177e+03	-1.0072078589e+03	-1.0072078589e+03	-1.0162289926e+03	-3.2104665812e+02	-6.9518233448e+02	1.8706783818e+02	5.3196104157e-19	5.7382669562e-19	4.3800261940e-18	2.7638397926e-18	1.6161864014e-18
0.000327705       	-1.9365798048e+03	-9.6828990242e+02	-9.6828990242e+02	-9.2843561955e+02	-3.0286741284e+02	-6.2556820672e+02	1.6135039694e+02	1.4346758536e-18	1.0564950233e-18	2.7399728816e-18	2.4264814641e-18	3.1349141748e-19
0.000329425       	-1.9795590006e+03	-9.8977950030e+02	-9.8977950030e+02	-9.7903686251e+02	-3.0620649526e+02	-6.7283036726e+02	1.8331193600e+02	3.2067287351e-19	3.4756162626e-19	1.6416673244e-17	8.5558982481e-18	7.8607749956e-18
0.000331146       	-1.9908210721e+03	-9.9541053603e+02	-9.9541053603e+02	-9.9346098159e+02	-3.1178591316e+02	-6.8167506843e+02	1.8494457763e+02	-1.1008031716e-18	-8.5498322979e-19	-1.5423092275e-18	-1.6261378435e-18	8.3828616054e-20
0.000332875       	-1.9501028067e+03	-9.7505140336e+02	-9.7505140336e+02	-9.5875989390e+02	-3.2122136477e+02	-6.3753852913e+02	1.5815858218e+02	1.7227766757e-19	2.9931357696e-19	-1.0103258850e-17	-4.7523158481e-18	-5.3509430021e-18
0.000334622       	-1.9017772264e+03	-9.5088861320e+02	-9.5088861320e+02	-9.2317671358e+02	-3.1724808970e+02	-6.0592862387e+02	1.4434026708e+02	-1.8821628972e-19	-1.1334592580e-19	-5.9474027760e-18	-3.0870473138e-18	-2.8603554622e-18
0.000336388       	-1.8783182449e+03	-9.3915912243e+02	-9.3915912243e+02	-9.1269614958e+02	-3.2618845864e+02	-5.8650769094e+02	1.3015961615e+02	-7.4551242171e-19	-5.3354060855e-19	-6.4580870997e-18	-3.7625841584e-18	-2.6955029413e-18
0.000338174       	-1.9285603782e+03	-9.6428018908e+02	-9.6428018908e+02	-9.7312901238e+02	-3.5423591040e+02	-6.1889310198e+02	1.3232859579e+02	-8.0638706567e-20	-6.2179538417e-19	2.1185082538e-18	4.3745874272e-19	1.6810495111e-18
0.000339983       	-1.9287743282e+03	-9.6438716412e+02	-9.6438716412e+02	-9.7863724570e+02	-3.4944614493e+02	-6.2919110077e+02	1.3987247792e+02	-2.2448733041e-18	-2.3196895232e-18	2.7761727713e-18	-9.3160313759e-19	3.7077759089e-18
0.000341816       	-1.9581129357e+03	-9.7905646786e+02	-9.7905646786e+02	-1.0200220789e+03	-3.6434132377e+02	-6.5568075515e+02	1.4566971569e+02	2.2117461614e-18	1.7085340007e-18	-5.0642006597e-18	-8.2356632914e-19	-4.2406343306e-18
0.000343675       	-1.8500525353e+03	-9.2502626767e+02	-9.2502626767e+02	-9.1946034759e+02	-3.4541206518e+02	-5.7404828240e+02	1.1431810861e+02	2.5020229830e-18	2.6821012596e-18	-1.5523616478e-18	1.9059204357e-18	-3.4582820835e-18
0.00034554        	-1.7557102348e+03	-8.7785511742e+02	-8.7785511742e+02	-8.4112440394e+02	-3.3032974774e+02	-5.1079465620e+02	9.0232454232e+01	-3.7933133289e-18	-3.7231316262e-18	-1.9460978219e-17	-1.3453620736e-17	-6.0073574834e-18
0.000347401       	-1.7424663835e+03	-8.7123319177e+02	-8.7123319177e+02	-8.4435699735e+02	-3.3877306098e+02	-5.0558393636e+02	8.3405437690e+01	4.6073426272e-19	-1.5104201408e-19	4.9031739159e-18	2.3005449439e-18	2.6026289720e-18
0.000349267       	-1.7399721578e+03	-8.6998607888e+02	-8.6998607888e+02	-8.6037091402e+02	-3.4849843787e+02	-5.1187247615e+02	8.1687019139e+01	-1.1898718374e-18	-1.2626319162e-18	-2.2345571604e-18	-2.3799104964e-18	1.4535333597e-19
0.000351141       	-1.6786620253e+03	-8.3933101265e+02	-8.3933101265e+02	-8.1139254347e+02	-3.4304730780e+02	-4.6834523567e+02	6.2648963932e+01	7.9234663326e-19	4.1505306413e-19	2.6777972980e-18	1.7539517131e-18	9.2384558486e-19
0.000353027       	-1.6149079217e+03	-8.0745396087e+02	-8.0745396087e+02	-7.6164237626e+02	-3.4126629017e+02	-4.2037608609e+02	3.9554897961e+01	5.0305143167e-19	7.7014119414e-19	5.8673816945e-19	1.0635102789e-18	-4.7677210941e-19
0.000354924       	-1.5511457603e+03	-7.7557288014e+02	-7.7557288014e+02	-7.1597642480e+02	-3.3900519300e+02	-3.7697123180e+02	1.8983019397e+01	1.0750615450e-18	2.6374152323e-20	8.6183638449e-18	4.3355560748e-18	4.2828077701e-18
0.000356836       	-1.4902230882e+03	-7.4511154412e+02	-7.4511154412e+02	-6.6793469850e+02	-3.3852049421e+02	-3.2941420429e+02	-4.5531449597e+00	-1.0063724727e-18	-1.5354794506e-18	-3.6176489046e-18	-3.3443039029e-18	-2.7334500172e-19
0.000358761       	-1.4630512771e+03	-7.3152563853e+02	-7.3152563853e+02	-6.5054476755e+02	-3.3782073132e+02	-3.1272403622e+02	-1.2548347549e+01	-2.9109429625e-18	-3.4121227642e-18	-1.5111353759e-17	-1.0967799643e-17	-4.1435541151e-18
0.000360704       	-1.5104569205e+03	-7.5522846027e+02	-7.5522846027e+02	-7.1052716494e+02	-3.5295731232e+02	-3.5756985262e+02	2.3062701485e+00	7.4600180728e-19	7.4758983192e-19	-3.1041401896e-19	5.9238282244e-19	-9.0279684141e-19
0.000362668       	-1.5236475103e+03	-7.6182375513e+02	-7.6182375513e+02	-7.3674595293e+02	-3.7008709691e+02	-3.6665885602e+02	-1.7141204439e+00	-8.2624161491e-19	-8.8771750162e-19	9.5199195227e-18	3.8722422597e-18	5.6476772630e-18
0.00036466        	-1.5236947698e+03	-7.6184738491e+02	-7.6184738491e+02	-7.5231024638e+02	-3.8283154781e+02	-3.6947869857e+02	-6.6764246180e+00	1.6020498141e-18	1.2214803541e-18	4.6054243208e-19	1.4517515701e-18	-9.9120913802e-19
0.00036668        	-1.4875970196e+03	-7.4379850979e+02	-7.4379850979e+02	-7.3576286910e+02	-3.8793795771e+02	-3.4782491139e+02	-2.0056523162e+01	-1.6362274202e-18	-2.0127515231e-18	-1.7188252694e-17	-1.0606877870e-17	-6.5813748238e-18
0.000368734       	-1.4523817348e+03	-7.2619086740e+02	-7.2619086740e+02	-7.1751824268e+02	-3.8810139430e+02	-3.2941684838e+02	-2.9342272958e+01	1.8003311928e-18	1.3255209414e-18	-7.2875159454e-18	-2.3182370313e-18	-4.9692789141e-18
0.000370808       	-1.4625394347e+03	-7.3126971735e+02	-7.3126971735e+02	-7.4191630733e+02	-3.9668402679e+02	-3.4523228054e+02	-2.5725873124e+01	-2.7436809091e-19	-6.4717699610e-19	-3.6210769978e-18	-2.4577154950e-18	-1.1633615028e-18
0.000372868       	-1.4852709480e+03	-7.4263547399e+02	-7.4263547399e+02	-7.7775557534e+02	-4.1177946030e+02	-3.6597611504e+02	-2.2901672628e+01	-3.5560743345e-19	-3.4640266299e-20	1.6229724176e-18	7.7684594250e-19	8.4612647510e-19
0.000374919       	-1.4686444834e+03	-7.3432224172e+02	-7.3432224172e+02	-7.6767031958e+02	-4.1484155543e+02	-3.5282876416e+02	-3.1006395636e+01	-1.6658788681e-18	-2.0303915387e-18	6.0495897610e-18	9.9440334182e-19	5.0551864192e-18
0.000376971       	-1.4555787456e+03	-7.2778937282e+02	-7.2778937282e+02	-7.6670811423e+02	-4.1936106500e+02	-3.4734704923e+02	-3.6007007883e+01	-5.9386261216e-20	1.5322675473e-19	-3.6210948551e-18	-1.6573206728e-18	-1.9637741823e-18
0.00037903        	-1.4766617760e+03	-7.3833088801e+02	-7.3833088801e+02	-8.0013138530e+02	-4.2878974036e+02	-3.7134164494e+02	-2.8724047710e+01	-8.3402340760e-19	-1.4136532213e-18	-4.9230503950e-18	-3.8751784188e-18	-1.0478719762e-18
0.000381104       	-1.4741052142e+03	-7.3705260709e+02	-7.3705260709e+02	-8.1028310510e+02	-4.3298383670e+02	-3.7729926840e+02	-2.7842284152e+01	-2.6297611587e-19	-1.2276273314e-19	-2.1294576975e-18	-1.1874915819e-18	-9.4196611562e-19
0.000383196       	-1.4848259353e+03	-7.4241296767e+02	-7.4241296767e+02	-8.3179636534e+02	-4.3898484605e+02	-3.9281151929e+02	-2.3086663381e+01	-7.6020650053e-19	-7.5778360923e-19	-2.2279053069e-18	-1.8717362627e-18	-3.5616904420e-19
0.000385309       	-1.5123638073e+03	-7.5618190363e+02	-7.5618190363e+02	-8.6933969733e+02	-4.5112640781e+02	-4.1821328952e+02	-1.6456559146e+01	3.1057806542e-19	3.1969771206e-19	3.7993290446e-18	2.2193622344e-18	1.5799668102e-18
0.000387448       	-1.5196745627e+03	-7.5983728134e+02	-7.5983728134e+02	-8.8470574762e+02	-4.5845367711e+02	-4.2625207051e+02	-1.6100803297e+01	3.4834138181e-19	3.7585202761e-19	2.7181303322e-18	1.7349171937e-18	9.8321313851e-19
0.000389615       	-1.5047801464e+03	-7.5239007319e+02	-7.5239007319e+02	-8.8359828425e+02	-4.6237500772e+02	-4.2122327653e+02	-2.0575865596e+01	4.9330021706e-19	4.8071022939e-19	-5.5805053144e-19	2.0168496368e-19	-7.5973549511e-19
0.000391814       	-1.4878886372e+03	-7.4394431861e+02	-7.4394431861e+02	-8.8176112641e+02	-4.6352895929e+02	-4.1823216713e+02	-2.2648396078e+01	4.0885328884e-19	5.2175589646e-19	-5.6941894776e-18	-2.3253388424e-18	-3.3688506353e-18
0.000394043       	-1.4837504269e+03	-7.4187521346e+02	-7.4187521346e+02	-8.9025933536e+02	-4.6553976327e+02	-4.2471957209e+02	-2.0410095592e+01	6.5838355803e-20	1.1738000809e-19	-9.6983743358e-19	-3.6753870870e-19	-6.0229872488e-19
0.000396296       	-1.4928855184e+03	-7.4644275919e+02	-7.4644275919e+02	-9.1261548268e+02	-4.7008505601e+02	-4.4253042666e+02	-1.3777314676e+01	4.7443825172e-20	-1.1313846471e-21	-1.8270906575e-18	-9.1467671339e-19	-9.1241394409e-19
0.000398552       	-1.4836362143e+03	-7.4181810715e+02	-7.4181810715e+02	-9.1577743676e+02	-4.7239024071e+02	-4.4338719605e+02	-1.4501522334e+01	7.6508327861e-19	1.0893059723e-18	-1.4839503140e-18	3.4733081529e-19	-1.8312811293e-18
0.000400804       	-1.4641938241e+03	-7.3209691203e+02	-7.3209691203e+02	-9.0760400678e+02	-4.7109092071e+02	-4.3651308607e+02	-1.7288917319e+01	2.9086353771e-19	1.3212104434e-19	-1.0302003005e-18	-3.8297910590e-19	-6.4722119457e-19
0.000403054       	-1.4386469996e+03	-7.1932349979e+02	-7.1932349979e+02	-8.9877932272e+02	-4.7025665884e+02	-4.2852266388e+02	-2.0866997478e+01	1.1872009092e-19	-9.3576211739e-20	1.4974877607e-18	6.5516766862e-19	8.4232009209e-19
0.000405304       	-1.4371581652e+03	-7.1857908258e+02	-7.1857908258e+02	-9.1175294734e+02	-4.7389814086e+02	-4.3785480648e+02	-1.8021667188e+01	4.9183080670e-19	5.1349809581e-19	3.5615218417e-19	6.9157418790e-19	-3.3542200373e-19
0.000407557       	-1.4221338710e+03	-7.1106693552e+02	-7.1106693552e+02	-9.1309100178e+02	-4.7517217942e+02	-4.3791882236e+02	-1.8626678532e+01	1.6198173413e-19	3.0428521547e-19	3.6307218532e-19	4.8582130813e-19	-1.2274912281e-19
0.000409816       	-1.3769844103e+03	-6.8849220514e+02	-6.8849220514e+02	-8.8391509038e+02	-4.7189971304e+02	-4.1201537735e+02	-2.9942167845e+01	2.7754618800e-19	3.5648151718e-19	-2.6066744669e-18	-9.4685571627e-19	-1.6598187506e-18
0.000412081       	-1.3425686135e+03	-6.7128430677e+02	-6.7128430677e+02	-8.6394203533e+02	-4.6855201820e+02	-3.9539001713e+02	-3.6581000537e+01	-1.8613765536e-19	-3.2933139344e-19	3.1130870163e-18	1.2272121147e-18	1.8858749016e-18
0.000414345       	-1.3373800614e+03	-6.6869003071e+02	-6.6869003071e+02	-8.7461047181e+02	-4.7489244267e+02	-3.9971802915e+02	-3.7587206759e+01	6.3293405650e-19	9.6010894816e-19	-2.7927381587e-18	-4.3626013119e-19	-2.3564780275e-18
0.000416611       	-1.3381172929e+03	-6.6905864647e+02	-6.6905864647e+02	-8.8937828394e+02	-4.8340974106e+02	-4.0596854289e+02	-3.8720599085e+01	8.9828242744e-21	-2.1240994592e-19	2.7507494750e-19	-7.4872472170e-20	3.4994741967e-19
0.000418878       	-1.3336107444e+03	-6.6680537219e+02	-6.6680537219e+02	-8.9996745293e+02	-4.8740651382e+02	-4.1256093911e+02	-3.7422787357e+01	8.5513171667e-20	1.6473696371e-19	5.8708185679e-20	1.9409105655e-19	-1.3538287087e-19
0.000421151       	-1.3024009823e+03	-6.5120049117e+02	-6.5120049117e+02	-8.8418654778e+02	-4.8382629810e+02	-4.0036024967e+02	-4.1733024215e+01	1.0576099769e-19	3.9801188690e-19	-2.2754094218e-18	-7.3969282398e-19	-1.5357165978e-18
0.00042343        	-1.2872584253e+03	-6.4362921263e+02	-6.4362921263e+02	-8.8179046102e+02	-4.8492059481e+02	-3.9686986622e+02	-4.4025364295e+01	2.4244673035e-19	-1.7071490037e-20	3.8910937300e-18	1.9284753750e-18	1.9626183550e-18
0.000425719       	-1.2628989530e+03	-6.3144947650e+02	-6.3144947650e+02	-8.7088802590e+02	-4.8176840644e+02	-3.8911961946e+02	-4.6324393491e+01	-4.8611470353e-19	-8.7230807897e-19	9.9193522317e-19	-3.7634046738e-19	1.3682756906e-18
0.000428019       	-1.2286771128e+03	-6.1433855641e+02	-6.1433855641e+02	-8.5147993672e+02	-4.7497579054e+02	-3.7650414618e+02	-4.9235822180e+01	-5.3816399444e-19	-8.4315274357e-19	1.5061123563e-18	-9.0096565402e-20	1.5962089217e-18
0.000430329       	-1.1710466479e+03	-5.8552332395e+02	-5.8552332395e+02	-8.0968965669e+02	-4.6046506454e+02	-3.4922459215e+02	-5.5620236198e+01	-7.7699774633e-20	-1.0232367952e-19	1.2107638617e-18	5.0305825132e-19	7.0770561036e-19
0.000432649       	-1.1421129323e+03	-5.7105646616e+02	-5.7105646616e+02	-7.9459536518e+02	-4.5761659308e+02	-3.3697877210e+02	-6.0318910494e+01	1.3815390526e-19	-1.8334914514e-19	3.8517685769e-18	1.7425351433e-18	2.1092334336e-18