# Force           
# CofR            : (0.0000000000e+00 0.0000000000e+00 0.0000000000e+00)
#
# Time            	total_x total_y total_z	pressure_x pressure_y pressure_z	viscous_x viscous_y viscous_z
0.00026696         -1.0770995566e+06 -1.5405381669e+06 -9.5882910301e-18 -1.0770998474e+06 -1.5405347223e+06 -9.5305256665e-18 2.9086143402e-01 -3.4446607025e+00 -5.7765363613e-20
0.000295049        -3.6451362158e+05 -5.1239732006e+05 -1.2078392222e-15 -3.6451331026e+05 -5.1239279737e+05 -1.2078329675e-15 -3.1131887885e-01 -4.5226892604e+00 -6.2546991904e-21
0.000335812        -1.0664990225e+05 -1.4798445544e+05 1.0765566959e-16 -1.0664915958e+05 -1.4797977957e+05 1.0764135716e-16 -7.4267074292e-01 -4.6758750624e+00 1.4312426422e-20
0.000393754        -5.4023313476e+04 -6.8517523971e+04 1.2604618524e-16 -5.4021657544e+04 -6.8513147064e+04 1.2603981254e-16 -1.6559318425e+00 -4.3769069377e+00 6.3726987036e-21
0.000470531        -3.2206021299e+04 -3.4869359472e+04 -1.0795014357e-16 -3.2202271388e+04 -3.4865788659e+04 -1.0794212654e-16 -3.7499112366e+00 -3.5708130694e+00 -8.0170274052e-21
0.000557903        -2.3994030719e+04 -2.2583353851e+04 1.0209862538e-17 -2.3988578069e+04 -2.2580427435e+04 1.0209788684e-17 -5.4526504108e+00 -2.9264159351e+00 7.3854169196e-23
0.000644501        -2.0525244253e+04 -1.7631387246e+04 1.6570571909e-17 -2.0518164533e+04 -1.7629213091e+04 1.6564502917e-17 -7.0797203315e+00 -2.1741556411e+00 6.0689915977e-21
0.000744753        -1.5623201445e+04 -1.0592796825e+04 3.3179705105e-17 -1.5615413741e+04 -1.0591113027e+04 3.3181857091e-17 -7.7877042523e+00 -1.6837982797e+00 -2.1519861720e-21
0.000861378        -1.5878233895e+04 -1.0577491145e+04 2.0435824788e-17 -1.5870436298e+04 -1.0575833303e+04 2.0437282055e-17 -7.7975965363e+00 -1.6578416565e+00 -1.4572667429e-21
0.000978296        -1.6221292294e+04 -1.1006949159e+04 -6.2788808992e-17 -1.6213703927e+04 -1.1005117709e+04 -6.2803021975e-17 -7.5883674828e+00 -1.8314494182e+00 1.4212983360e-20
0.0010945          -1.6008522622e+04 -1.0652145305e+04 1.9532065506e-17 -1.6001289136e+04 -1.0649903902e+04 1.9535151153e-17 -7.2334859620e+00 -2.2414034780e+00 -3.0856461895e-21
0.00121121         -1.4336864535e+04 -8.2773559066e+03 -3.5585045580e-17 -1.4329912815e+04 -8.2749316032e+03 -3.5581504672e-17 -6.9517196964e+00 -2.4243033982e+00 -3.5409077169e-21
0.00132576         -1.4139613325e+04 -7.9974383524e+03 6.0501463733e-19 -1.4132956994e+04 -7.9946983595e+03 6.0272863332e-19 -6.6563313765e+00 -2.7399928696e+00 2.2860040143e-21
0.00144091         -1.3616479602e+04 -7.2749507100e+03 -4.1800721115e-17 -1.3610153222e+04 -7.2718244605e+03 -4.1805588747e-17 -6.3263799390e+00 -3.1262494536e+00 4.8676325563e-21
0.00155701         -1.4114270203e+04 -7.9938770019e+03 5.9933636889e-18 -1.4108335815e+04 -7.9903975966e+03 6.0068221870e-18 -5.9343880591e+00 -3.4794052703e+00 -1.3458498068e-20
0.00167293         -1.3960883341e+04 -7.7989051854e+03 -6.6931459344e-18 -1.3955329727e+04 -7.7950825609e+03 -6.6960851324e-18 -5.5536144054e+00 -3.8226244738e+00 2.9391979965e-21
0.00178915         -1.3972149184e+04 -7.9041368705e+03 6.1329631802e-17 -1.3966967478e+04 -7.8999687298e+03 6.1327842187e-17 -5.1817067142e+00 -4.1681407181e+00 1.7896149359e-21
0.00190533         -1.3410370498e+04 -7.0669033523e+03 5.7621159250e-17 -1.3405576942e+04 -7.0623822349e+03 5.7630309107e-17 -4.7935563659e+00 -4.5211174379e+00 -9.1498569151e-21
0.00202096         -1.3167407160e+04 -6.7641355439e+03 -1.2853086559e-17 -1.3162978192e+04 -6.7592385271e+03 -1.2852642079e-17 -4.4289682235e+00 -4.8970167344e+00 -4.4447936870e-22
0.00213707         -1.2936251900e+04 -6.5829978080e+03 -6.1757145433e-18 -1.2932202309e+04 -6.5777634867e+03 -6.1696187146e-18 -4.0495917606e+00 -5.2343212932e+00 -6.0958286568e-21
0.00225467         -1.2483898131e+04 -6.1107391329e+03 -2.3991345306e-18 -1.2480254752e+04 -6.1052514705e+03 -2.3865001659e-18 -3.6433793098e+00 -5.4876624254e+00 -1.2634364671e-20
0.00237323         -1.2880531500e+04 -6.6596036217e+03 1.2021512391e-17 -1.2877210753e+04 -6.6539988268e+03 1.2015626981e-17 -3.3207475688e+00 -5.6047948732e+00 5.8854095372e-21
0.00249179         -1.2761942826e+04 -6.6887258033e+03 3.0366454490e-17 -1.2758840242e+04 -6.6830503197e+03 3.0376724346e-17 -3.1025845733e+00 -5.6754836100e+00 -1.0269855190e-20
0.00261049         -1.2496259662e+04 -6.4113829082e+03 1.0235180799e-17 -1.2493308861e+04 -6.4056640695e+03 1.0242514253e-17 -2.9508004831e+00 -5.7188387031e+00 -7.3334541021e-21
0.00273026         -1.2347076616e+04 -6.3195079725e+03 -1.9162944907e-17 -1.2344263716e+04 -6.3137674778e+03 -1.9159207226e-17 -2.8128992079e+00 -5.7404946718e+00 -3.7376803626e-21
0.00285126         -1.2718007673e+04 -6.8944037125e+03 -1.4905470939e-17 -1.2715328894e+04 -6.8886888664e+03 -1.4907355770e-17 -2.6787787653e+00 -5.7148461011e+00 1.8848302198e-21
0.00297305         -1.2410131056e+04 -6.4664352645e+03 2.2321310553e-17 -1.2407512712e+04 -6.4608272224e+03 2.2322809710e-17 -2.6183442061e+00 -5.6080421114e+00 -1.4991573167e-21
0.00309529         -1.1997137453e+04 -5.9339539671e+03 8.8006653527e-19 -1.1994498414e+04 -5.9284885391e+03 8.8723327281e-19 -2.6390388752e+00 -5.4654280437e+00 -7.1667375489e-21
0.00321806         -1.1763168713e+04 -5.6993115915e+03 -1.4816147961e-17 -1.1760533870e+04 -5.6939675919e+03 -1.4815888131e-17 -2.6348437939e+00 -5.3439996494e+00 -2.5983037897e-22
0.00334165         -1.1636107337e+04 -5.6027307782e+03 2.8880487664e-17 -1.1633431295e+04 -5.5975234643e+03 2.8882527206e-17 -2.6760423356e+00 -5.2073139131e+00 -2.0395419415e-21
0.0034661          -1.2148139951e+04 -6.5478011315e+03 -2.3468813521e-17 -1.2145433811e+04 -6.5427131519e+03 -2.3473209815e-17 -2.7061399627e+00 -5.0879796027e+00 4.3962939988e-21
0.00359129         -1.1705439241e+04 -5.9534835816e+03 -2.0841175062e-18 -1.1702695754e+04 -5.9485076780e+03 -2.0972347596e-18 -2.7434868262e+00 -4.9759036508e+00 1.3117253355e-20
0.00371793         -1.1928712843e+04 -6.3670966618e+03 6.6079842269e-18 -1.1925958213e+04 -6.3622459300e+03 6.6088350601e-18 -2.7546297603e+00 -4.8507317924e+00 -8.5083320393e-22
0.00384638         -1.1462115566e+04 -5.8039681522e+03 -6.5108302960e-19 -1.1459396237e+04 -5.7992809673e+03 -6.4444197093e-19 -2.7193294227e+00 -4.6871848966e+00 -6.6410586686e-21
0.00397645         -1.1482696011e+04 -5.9555803583e+03 -2.2221015073e-18 -1.1479980879e+04 -5.9511269830e+03 -2.2174752684e-18 -2.7151311836e+00 -4.4533753406e+00 -4.6262389150e-21
0.00410786         -1.1330533401e+04 -5.8016759551e+03 9.4751097062e-18 -1.1327794770e+04 -5.7975045059e+03 9.4692447986e-18 -2.7386316948e+00 -4.1714491105e+00 5.8649076430e-21
0.00424034         -1.1250306947e+04 -5.8837450866e+03 9.4160157636e-18 -1.1247541791e+04 -5.8798525983e+03 9.4192029581e-18 -2.7651558212e+00 -3.8924883295e+00 -3.1871944623e-21
0.00437347         -1.1261619649e+04 -5.9800414104e+03 2.4151352681e-17 -1.1258794479e+04 -5.9764105126e+03 2.4144691476e-17 -2.8251698015e+00 -3.6308978251e+00 6.6612045704e-21
0.00450698         -1.1090599693e+04 -5.8307520234e+03 -1.5937862851e-17 -1.1087667331e+04 -5.8273599657e+03 -1.5942910628e-17 -2.9323623548e+00 -3.3920577453e+00 5.0477769394e-21
0.0046407          -1.0968856272e+04 -5.6620461865e+03 -4.3111657091e-18 -1.0965758328e+04 -5.6588750351e+03 -4.3143578639e-18 -3.0979445658e+00 -3.1711513942e+00 3.1921548038e-21
0.00477453         -1.0833831283e+04 -5.5240930884e+03 -2.9095413509e-17 -1.0830550978e+04 -5.5211139775e+03 -2.9094939942e-17 -3.2803049053e+00 -2.9791109367e+00 -4.7356706182e-22
0.00490885         -1.1085702309e+04 -5.9914543061e+03 -2.6761358366e-17 -1.1082214897e+04 -5.9886535373e+03 -2.6768866320e-17 -3.4874113714e+00 -2.8007687705e+00 7.5079534766e-21
0.00504404         -1.0877431749e+04 -5.6980460118e+03 -1.9327119530e-18 -1.0873736003e+04 -5.6953979816e+03 -1.9313920930e-18 -3.6957460941e+00 -2.6480301985e+00 -1.3198599404e-21
0.00517988         -1.0952909757e+04 -5.8858384920e+03 1.1860031610e-17 -1.0948949295e+04 -5.8833528061e+03 1.1865212216e-17 -3.9604618038e+00 -2.4856859245e+00 -5.1806061186e-21
0.0053161          -1.0902037621e+04 -5.8184625947e+03 -4.5207821286e-17 -1.0897756264e+04 -5.8161534380e+03 -4.5205888241e-17 -4.2813574021e+00 -2.3091567259e+00 -1.9330448639e-21
0.00545289         -1.1395521752e+04 -6.6181107292e+03 1.2485878038e-17 -1.1390884527e+04 -6.6160136884e+03 1.2483126284e-17 -4.6372244894e+00 -2.0970408574e+00 2.7517538802e-21
0.00559058         -1.1415241500e+04 -6.7358577702e+03 1.3488936381e-17 -1.1410247630e+04 -6.7340075958e+03 1.3489970713e-17 -4.9938704856e+00 -1.8501743821e+00 -1.0343325861e-21
0.00572936         -1.1172582017e+04 -6.5164390283e+03 2.3790753929e-17 -1.1167224720e+04 -6.5148817092e+03 2.3793295867e-17 -5.3572972016e+00 -1.5573190670e+00 -2.5419379084e-21
0.00586918         -1.1334310358e+04 -6.7910036728e+03 -7.1568320562e-18 -1.1328566366e+04 -6.7897705560e+03 -7.1519351179e-18 -5.7439916836e+00 -1.2331167648e+00 -4.8969382886e-21
0.00600985         -1.0937083397e+04 -6.2815573552e+03 -1.2275993747e-17 -1.0930910329e+04 -6.2806810461e+03 -1.2278426593e-17 -6.1730678889e+00 -8.7630913053e-01 2.4328469364e-21
0.00615132         -1.1054859462e+04 -6.5155916880e+03 1.0519446702e-18 -1.1048231750e+04 -6.5150930989e+03 1.0478975780e-18 -6.6277121701e+00 -4.9858911599e-01 4.0470922512e-21
0.0062934          -1.0889822819e+04 -6.2791229136e+03 2.4586126643e-17 -1.0882769862e+04 -6.2789826249e+03 2.4583560750e-17 -7.0529568443e+00 -1.4028874191e-01 2.5658939853e-21
0.00643597         -1.0956242086e+04 -6.4623035041e+03 -8.5481758371e-18 -1.0948785416e+04 -6.4625052730e+03 -8.5523971000e-18 -7.4566701397e+00 2.0176893341e-01 4.2212629950e-21
0.00657888         -1.0834707844e+04 -6.2994040356e+03 -1.0699430306e-17 -1.0826857694e+04 -6.2999279189e+03 -1.0696373794e-17 -7.8501494293e+00 5.2388331558e-01 -3.0565127042e-21
0.006722           -1.0618327990e+04 -5.9310888529e+03 1.1791510657e-18 -1.0610080362e+04 -5.9319217134e+03 1.1866004681e-18 -8.2476279331e+00 8.3286053833e-01 -7.4494023192e-21
0.00686513         -1.0723048268e+04 -6.1616174277e+03 3.2569301980e-17 -1.0714389932e+04 -6.1627377348e+03 3.2561223665e-17 -8.6583362136e+00 1.1203071743e+00 8.0783149964e-21
0.00700811         -1.0547345435e+04 -5.8749234156e+03 -1.4139577938e-17 -1.0538274945e+04 -5.8763086667e+03 -1.4144073911e-17 -9.0704896145e+00 1.3852510651e+00 4.4959726623e-21
0.00715093         -1.0426498469e+04 -5.6609834725e+03 1.8948709180e-17 -1.0417006802e+04 -5.6626177634e+03 1.8945811844e-17 -9.4916663558e+00 1.6342909156e+00 2.8973366069e-21
0.00729363         -1.0273037493e+04 -5.4684140838e+03 -9.4392270997e-18 -1.0263119531e+04 -5.4702881273e+03 -9.4440015380e-18 -9.9179624248e+00 1.8740435280e+00 4.7744382555e-21
0.00743627         -1.0095364959e+04 -5.2355019151e+03 1.1515455120e-17 -1.0085030216e+04 -5.2376024487e+03 1.1514898728e-17 -1.0334742164e+01 2.1005335548e+00 5.5639174767e-22
0.00757893         -9.8987934199e+03 -4.9506254740e+03 -3.0550281465e-19 -9.8880436345e+03 -4.9529544326e+03 -3.0005959743e-19 -1.0749785350e+01 2.3289586117e+00 -5.4432172226e-21
0.00772165         -9.7136723186e+03 -4.7170571806e+03 1.2758163589e-17 -9.7025110679e+03 -4.7196138018e+03 1.2758286086e-17 -1.1161250719e+01 2.5566212330e+00 -1.2249727727e-22
0.00786441         -9.6388453684e+03 -4.6203234751e+03 -1.6024593604e-17 -9.6272850965e+03 -4.6230985324e+03 -1.6029849609e-17 -1.1560271876e+01 2.7750573226e+00 5.2560045214e-21
0.00800711         -9.7316243416e+03 -4.7480842773e+03 -2.9139612184e-18 -9.7196808341e+03 -4.7510639039e+03 -2.9107866698e-18 -1.1943507563e+01 2.9796265426e+00 -3.1745485315e-21
0.00814952         -9.8884252395e+03 -4.9475388353e+03 4.4802513074e-18 -9.8760954145e+03 -4.9507142436e+03 4.4790496172e-18 -1.2329824987e+01 3.1754082745e+00 1.2016901731e-21
0.00829139         -9.9246959935e+03 -4.9414417182e+03 2.5638093185e-17 -9.9119706694e+03 -4.9448082913e+03 2.5641133692e-17 -1.2725324176e+01 3.3665730990e+00 -3.0405069273e-21
0.00843255         -1.0033848598e+04 -5.0515828115e+03 -8.7418549948e-18 -1.0020712360e+04 -5.0551432904e+03 -8.7335166703e-18 -1.3136238392e+01 3.5604789142e+00 -8.3383244330e-21
0.00857284         -1.0055465533e+04 -5.0159484242e+03 -1.5437953260e-17 -1.0041891305e+04 -5.0197021301e+03 -1.5441670859e-17 -1.3574228675e+01 3.7537058786e+00 3.7175989088e-21
0.00871214         -9.9550779973e+03 -4.8255883357e+03 1.2503932402e-18 -9.9410829632e+03 -4.8295108670e+03 1.2555593403e-18 -1.3995034127e+01 3.9225313211e+00 -5.1661000910e-21
0.00885036         -9.9921053930e+03 -4.7891723630e+03 -6.9971962633e-18 -9.9777475937e+03 -4.7932298270e+03 -6.9981725242e-18 -1.4357799325e+01 4.0574640450e+00 9.7626086426e-22
0.00898742         -9.8477800247e+03 -4.4911557396e+03 -3.4407545495e-17 -9.8331201315e+03 -4.4953183962e+03 -3.4398704987e-17 -1.4659893189e+01 4.1626565659e+00 -8.8405080947e-21
0.00912326         -9.7478892580e+03 -4.2489840342e+03 8.7284304938e-19 -9.7329756035e+03 -4.2532316463e+03 8.7137598200e-19 -1.4913654574e+01 4.2476121081e+00 1.4670673778e-21
0.00925786         -9.5131940401e+03 -3.8450258273e+03 9.5022166635e-18 -9.4980819465e+03 -3.8493337849e+03 9.4910242621e-18 -1.5112093531e+01 4.3079576117e+00 1.1192401365e-20
0.00939131         -9.5352437366e+03 -3.8234089042e+03 -4.2885794702e-19 -9.5199931442e+03 -3.8277385509e+03 -4.2964043951e-19 -1.5250592490e+01 4.3296467122e+00 7.8249248769e-22
0.00952353         -9.3827168931e+03 -3.5589355064e+03 3.4826281430e-17 -9.3673486732e+03 -3.5632773222e+03 3.4822512275e-17 -1.5368219862e+01 4.3418157635e+00 3.7691553380e-21
0.00965456         -9.3590762785e+03 -3.4693206970e+03 -9.3408408538e-18 -9.3436216908e+03 -3.4736656356e+03 -9.3416620656e-18 -1.5454587749e+01 4.3449386491e+00 8.2121175631e-22
0.0097845          -9.2886079747e+03 -3.3397253713e+03 1.8369230868e-17 -9.2730993994e+03 -3.3440656491e+03 1.8372397574e-17 -1.5508575253e+01 4.3402777844e+00 -3.1667068085e-21
0.00991348         -9.4833846221e+03 -3.5476656138e+03 1.6219436661e-17 -9.4678432543e+03 -3.5519975796e+03 1.6220587172e-17 -1.5541367796e+01 4.3319658210e+00 -1.1505103768e-21
0.0100417          -9.5008781758e+03 -3.5041032110e+03 1.5570970417e-17 -9.4853157108e+03 -3.5084256102e+03 1.5571038779e-17 -1.5562464994e+01 4.3223991979e+00 -6.8361352164e-23
0.0101692          -9.4419648600e+03 -3.4122570479e+03 -3.6161954724e-17 -9.4263912443e+03 -3.4165724547e+03 -3.6163532291e-17 -1.5573615684e+01 4.3154067587e+00 1.5775677775e-21
0.0102964          -9.3908387902e+03 -3.3099024373e+03 -1.8860261885e-17 -9.3752517946e+03 -3.3142305170e+03 -1.8859525265e-17 -1.5586995667e+01 4.3280797457e+00 -7.3661949855e-22
0.0104234          -9.2774984636e+03 -3.1901700464e+03 1.1170116235e-17 -9.2619243770e+03 -3.1945106836e+03 1.1164804018e-17 -1.5574086588e+01 4.3406372285e+00 5.3122174752e-21
0.0105507          -9.2145936062e+03 -3.1713576709e+03 6.1254603489e-17 -9.1990418391e+03 -3.1757144488e+03 6.1254423961e-17 -1.5551767065e+01 4.3567779011e+00 1.7952832637e-22
0.0106786          -9.1227239984e+03 -3.1039198482e+03 1.7981944608e-17 -9.1071979963e+03 -3.1082968830e+03 1.7983584789e-17 -1.5526002114e+01 4.3770348508e+00 -1.6401812479e-21
0.0108071          -9.0513758971e+03 -3.0983347875e+03 3.3864940786e-20 -9.0358751754e+03 -3.1027398694e+03 3.9534105977e-20 -1.5500721666e+01 4.4050818703e+00 -5.6691651915e-21
0.0109364          -9.1310283533e+03 -3.2644016132e+03 4.4514135634e-17 -9.1155449147e+03 -3.2688426091e+03 4.4504472819e-17 -1.5483438606e+01 4.4409959518e+00 9.6628152171e-21
0.0110666          -8.9647316478e+03 -3.1436672634e+03 -3.0559042008e-17 -8.9492544613e+03 -3.1481547623e+03 -3.0564903607e-17 -1.5477186480e+01 4.4874989400e+00 5.8615989230e-21
0.0111978          -8.9533536696e+03 -3.2206593409e+03 -3.2683035979e-17 -8.9378741729e+03 -3.2252013841e+03 -3.2683387601e-17 -1.5479496665e+01 4.5420432162e+00 3.5162212330e-22
0.0113299          -8.9578450993e+03 -3.3149830739e+03 -1.6538118837e-17 -8.9423611630e+03 -3.3195817851e+03 -1.6538253548e-17 -1.5483936322e+01 4.5987111472e+00 1.3471088015e-22
0.0114631          -9.0380814887e+03 -3.5092019794e+03 -3.7884722587e-17 -9.0225874891e+03 -3.5138569292e+03 -3.7889040073e-17 -1.5493999541e+01 4.6549498157e+00 4.3174862459e-21
0.0115974          -8.9130674435e+03 -3.4342787522e+03 1.5509321782e-17 -8.8975559454e+03 -3.4389929077e+03 1.5500883864e-17 -1.5511498095e+01 4.7141554402e+00 8.4379177632e-21
0.0117327          -8.8731395205e+03 -3.4871338299e+03 -2.8877392058e-17 -8.8575986608e+03 -3.4919165346e+03 -2.8873685748e-17 -1.5540859772e+01 4.7827047789e+00 -3.7063100315e-21
0.0118692          -8.7905105009e+03 -3.4770367889e+03 -5.1158921054e-18 -8.7749322269e+03 -3.4818947730e+03 -5.1138730861e-18 -1.5578274045e+01 4.8579840478e+00 -2.0190192549e-21
0.0120067          -8.6726374624e+03 -3.4500962466e+03 -5.4835374278e-18 -8.6570212575e+03 -3.4550310858e+03 -5.4801568114e-18 -1.5616204861e+01 4.9348391817e+00 -3.3806164384e-21
0.0121454          -8.6957197318e+03 -3.5539874619e+03 -1.1920374346e-17 -8.6800615742e+03 -3.5589964719e+03 -1.1918439086e-17 -1.5658157667e+01 5.0090099534e+00 -1.9352601702e-21
0.0122852          -8.7146476785e+03 -3.6820569061e+03 -2.1888453204e-17 -8.6989371047e+03 -3.6871409771e+03 -2.1884071178e-17 -1.5710573777e+01 5.0840709597e+00 -4.3820262873e-21
0.012426           -8.6519185931e+03 -3.6977814734e+03 -1.2838559661e-17 -8.6361497682e+03 -3.7029412759e+03 -1.2839605263e-17 -1.5768824969e+01 5.1598024583e+00 1.0456017765e-21
0.0125678          -8.6762863396e+03 -3.8044373644e+03 -2.5014546833e-17 -8.6604511710e+03 -3.8096768195e+03 -2.5017242596e-17 -1.5835168533e+01 5.2394551026e+00 2.6957634567e-21
0.0127105          -8.6566476086e+03 -3.8704940588e+03 -5.9400342733e-18 -8.6407420855e+03 -3.8758149058e+03 -5.9398331796e-18 -1.5905523147e+01 5.3208469935e+00 -2.0109374069e-22
0.0128543          -8.6650652412e+03 -3.9513973964e+03 -2.0347722335e-17 -8.6490853973e+03 -3.9567975228e+03 -2.0351745367e-17 -1.5979843896e+01 5.4001264072e+00 4.0230327763e-21
0.0129991          -8.6252101535e+03 -3.9894626664e+03 1.8633927191e-18 -8.6091560458e+03 -3.9949427731e+03 1.8588248562e-18 -1.6054107697e+01 5.4801066703e+00 4.5678628279e-21
0.0131448          -8.6607595440e+03 -4.1295468218e+03 -1.5249514795e-17 -8.6446205216e+03 -4.1351115126e+03 -1.5248204644e-17 -1.6139022371e+01 5.5646907751e+00 -1.3101509906e-21
0.0132916          -8.6915610283e+03 -4.2279104432e+03 6.3824001444e-18 -8.6753266327e+03 -4.2335639657e+03 6.3872349605e-18 -1.6234395617e+01 5.6535225707e+00 -4.8348161000e-21
0.0134393          -8.7083038512e+03 -4.2910161592e+03 1.7267570386e-17 -8.6919633363e+03 -4.2967601100e+03 1.7268695938e-17 -1.6340514918e+01 5.7439508118e+00 -1.1255527312e-21
0.0135879          -8.6635144472e+03 -4.2753120309e+03 1.4567419184e-17 -8.6470558932e+03 -4.2811480229e+03 1.4563125216e-17 -1.6458553934e+01 5.8359920567e+00 4.2939677438e-21
0.0137373          -8.6013658368e+03 -4.2304926134e+03 -1.3201497927e-17 -8.5847815259e+03 -4.2364203011e+03 -1.3194437898e-17 -1.6584310864e+01 5.9276876983e+00 -7.0600291403e-21
0.0138874          -8.5964976817e+03 -4.2527141285e+03 6.1770485510e-18 -8.5797769251e+03 -4.2587365887e+03 6.1785147859e-18 -1.6720756575e+01 6.0224601918e+00 -1.4662348231e-21
0.0140381          -8.5857862587e+03 -4.2561207484e+03 -5.6891402460e-18 -8.5689157430e+03 -4.2622408143e+03 -5.6797910633e-18 -1.6870515711e+01 6.1200658959e+00 -9.3491826808e-21
0.0141894          -8.6304100351e+03 -4.3429800587e+03 2.1845876334e-18 -8.6133834207e+03 -4.3491946860e+03 2.1916121343e-18 -1.7026614497e+01 6.2146272643e+00 -7.0245009393e-21
0.0143411          -8.6129071791e+03 -4.3584868774e+03 -2.3298774414e-17 -8.5957220609e+03 -4.3647896987e+03 -2.3299544052e-17 -1.7185118272e+01 6.3028212936e+00 7.6963805356e-22
0.0144933          -8.6149169051e+03 -4.3650493934e+03 -3.0074690926e-17 -8.5975720663e+03 -4.3714357664e+03 -3.0079982657e-17 -1.7344838850e+01 6.3863730238e+00 5.2917308001e-21
0.0146458          -8.7101243017e+03 -4.4990911533e+03 6.1521866360e-18 -8.6926084658e+03 -4.5055633772e+03 6.1503416444e-18 -1.7515835938e+01 6.4722239278e+00 1.8449915331e-21
0.0147985          -8.7748498185e+03 -4.5978841688e+03 8.6577767494e-18 -8.7571536831e+03 -4.6044443893e+03 8.6561860534e-18 -1.7696135390e+01 6.5602205200e+00 1.5906960298e-21
0.0149514          -8.7482562368e+03 -4.5206061845e+03 2.5899659632e-17 -8.7303761508e+03 -4.5272495117e+03 2.5906655081e-17 -1.7880086007e+01 6.6433272888e+00 -6.9954494173e-21
0.0151041          -8.7638070631e+03 -4.5057216656e+03 -6.1661377108e-18 -8.7457392607e+03 -4.5124426879e+03 -6.1733123727e-18 -1.8067802407e+01 6.7210222430e+00 7.1746619766e-21
0.0152567          -8.7817259480e+03 -4.5091853805e+03 1.8068568817e-17 -8.7634664091e+03 -4.5159794892e+03 1.8067274266e-17 -1.8259538864e+01 6.7941087251e+00 1.2945506844e-21
0.0154089          -8.7529456427e+03 -4.4424647276e+03 2.3292727850e-17 -8.7344953005e+03 -4.4493275349e+03 2.3300851763e-17 -1.8450342263e+01 6.8628073369e+00 -8.1239135553e-21
0.0155606          -8.7533193128e+03 -4.4052450272e+03 7.7962832192e-19 -8.7346795267e+03 -4.4121729851e+03 7.8430782079e-19 -1.8639786084e+01 6.9279578885e+00 -4.6794988731e-21
0.0157117          -8.7162244304e+03 -4.2661252862e+03 9.0606560367e-18 -8.6973975345e+03 -4.2731139895e+03 9.0520738469e-18 -1.8826895989e+01 6.9887033220e+00 8.5821898803e-21
0.0158621          -8.7114381141e+03 -4.2127537871e+03 8.6586890207e-18 -8.6924413258e+03 -4.2197858476e+03 8.6614085994e-18 -1.8996788310e+01 7.0320604908e+00 -2.7195787001e-21
0.0160119          -8.6933700094e+03 -4.1335241359e+03 1.9421136103e-17 -8.6741926587e+03 -4.1405991921e+03 1.9417678397e-17 -1.9177350664e+01 7.0750562026e+00 3.4577058619e-21
0.0161608          -8.7300002322e+03 -4.1090581355e+03 -2.5261384995e-17 -8.7106496078e+03 -4.1161734295e+03 -2.5256576997e-17 -1.9350624368e+01 7.1152940250e+00 -4.8079974248e-21
0.0163088          -8.7361227226e+03 -4.0453447499e+03 -9.8957139077e-18 -8.7165999790e+03 -4.0524996895e+03 -9.8951850674e-18 -1.9522743592e+01 7.1549395404e+00 -5.2884035809e-22
0.016456           -8.7391077723e+03 -3.9432583789e+03 -2.7977179551e-17 -8.7194077166e+03 -3.9504598582e+03 -2.7980884281e-17 -1.9700055752e+01 7.2014793359e+00 3.7047302465e-21
0.0166023          -8.7566880514e+03 -3.8958064053e+03 1.1973500298e-18 -8.7368068330e+03 -3.9030617450e+03 1.1977748700e-18 -1.9881218355e+01 7.2553396769e+00 -4.2484011812e-22
0.0167479          -8.6420782472e+03 -3.6324463968e+03 -8.2342396764e-18 -8.6220115319e+03 -3.6397617439e+03 -8.2350010518e-18 -2.0066715350e+01 7.3153470727e+00 7.6137537147e-22
0.0168929          -8.6722781594e+03 -3.6123897173e+03 -9.9805923767e-18 -8.6520263648e+03 -3.6197618669e+03 -9.9781965827e-18 -2.0251794585e+01 7.3721495581e+00 -2.3957940066e-21
0.0170372          -8.6356443657e+03 -3.4946865584e+03 1.9397541835e-17 -8.6152002609e+03 -3.5021191115e+03 1.9400890223e-17 -2.0444104796e+01 7.4325531902e+00 -3.3483881061e-21
0.017181           -8.6958795946e+03 -3.5002270642e+03 2.3139412933e-17 -8.6752363533e+03 -3.5077235430e+03 2.3135361293e-17 -2.0643241291e+01 7.4964788158e+00 4.0516403595e-21
0.0173242          -8.7127686683e+03 -3.4609612478e+03 1.8091521185e-17 -8.6919229133e+03 -3.4685196715e+03 1.8092952446e-17 -2.0845754991e+01 7.5584237188e+00 -1.4312605226e-21
0.0174667          -8.7814840651e+03 -3.5401841998e+03 4.2667458626e-17 -8.7604347800e+03 -3.5478005665e+03 4.2678000313e-17 -2.1049285090e+01 7.6163666228e+00 -1.0541687335e-20
0.0176085          -8.8889257523e+03 -3.6144981423e+03 -7.6168412599e-18 -8.8676758457e+03 -3.6221641400e+03 -7.6155431919e-18 -2.1249906589e+01 7.6659977207e+00 -1.2980679940e-21
0.0177495          -8.8530623952e+03 -3.4807291743e+03 -1.2602339164e-17 -8.8316109811e+03 -3.4884394062e+03 -1.2598802585e-17 -2.1451414154e+01 7.7102318363e+00 -3.5365787752e-21
0.0178896          -8.8419467556e+03 -3.3423820048e+03 -4.3992887814e-17 -8.8202935693e+03 -3.3501320892e+03 -4.3993767848e-17 -2.1653186330e+01 7.7500843721e+00 8.8003431292e-22
0.0180286          -8.8225666759e+03 -3.2009043172e+03 -8.1400061729e-19 -8.8007136056e+03 -3.2086907274e+03 -8.1196863385e-19 -2.1853070354e+01 7.7864101143e+00 -2.0319834438e-21
0.0181665          -8.8756717175e+03 -3.1507115714e+03 5.4923165438e-17 -8.8536197560e+03 -3.1585305869e+03 5.4918402829e-17 -2.2051961484e+01 7.8190154926e+00 4.7626090366e-21
0.0183033          -8.9173217951e+03 -3.0800618500e+03 -2.2755414732e-17 -8.8950702824e+03 -3.0879110358e+03 -2.2754977267e-17 -2.2251512719e+01 7.8491857562e+00 -4.3746465757e-22
0.0184388          -9.0771499227e+03 -3.2452104723e+03 1.9372115288e-17 -9.0547094527e+03 -3.2530780124e+03 1.9379621387e-17 -2.2440469983e+01 7.8675400996e+00 -7.5060990559e-21
0.0185731          -8.4621245807e+03 -2.0274600268e+03 3.2675265145e-17 -8.4395067619e+03 -2.0353389754e+03 3.2678355984e-17 -2.2617818820e+01 7.8789485907e+00 -3.0908389088e-21
0.0187061          -8.9279364898e+03 -2.7327749618e+03 -8.2895718794e-18 -8.9051537340e+03 -2.7406599525e+03 -8.2905843501e-18 -2.2782755781e+01 7.8849906142e+00 1.0124707443e-21
0.0188379          -8.9016138513e+03 -2.5600659957e+03 1.8616610936e-17 -8.8786800720e+03 -2.5679493594e+03 1.8616493743e-17 -2.2933779289e+01 7.8833637548e+00 1.1719290194e-22
0.0189685          -8.7618029839e+03 -2.2208732588e+03 -1.8313430720e-17 -8.7387281642e+03 -2.2287536945e+03 -1.8310298094e-17 -2.3074819641e+01 7.8804357626e+00 -3.1326261284e-21
0.0190979          -8.7471502477e+03 -2.0798002514e+03 -7.3440247520e-18 -8.7239448653e+03 -2.0876760668e+03 -7.3408961252e-18 -2.3205382422e+01 7.8758154098e+00 -3.1286267347e-21
0.0192263          -8.8259449132e+03 -2.0628385824e+03 -7.9494161882e-18 -8.8026197226e+03 -2.0707082718e+03 -7.9551949402e-18 -2.3325190576e+01 7.8696893824e+00 5.7787520353e-21
0.0193538          -8.6853625967e+03 -1.7384177685e+03 2.7134905528e-17 -8.6619227949e+03 -1.7462863697e+03 2.7126797946e-17 -2.3439801801e+01 7.8686011669e+00 8.1075823049e-21
0.0194803          -8.5978273660e+03 -1.4712284258e+03 9.5125412996e-18 -8.5742786444e+03 -1.4790994461e+03 9.5149440604e-18 -2.3548721587e+01 7.8710203026e+00 -2.4027608445e-21
0.0196061          -8.4092155736e+03 -1.1083254175e+03 1.2201780937e-17 -8.3855702580e+03 -1.1161994114e+03 1.2201689557e-17 -2.3645315639e+01 7.8739939423e+00 9.1380804964e-23
0.0197312          -8.2558334304e+03 -7.9936254131e+02 9.9176864737e-18 -8.2320989104e+03 -8.0724215216e+02 9.9235534646e-18 -2.3734520013e+01 7.8796108549e+00 -5.8669908958e-21
0.0198557          -8.2965360339e+03 -7.7623545879e+02 3.8165752591e-19 -8.2727207080e+03 -7.8411996534e+02 3.6949452427e-19 -2.3815325932e+01 7.8845065474e+00 1.2163001636e-20
0.0199795          -8.1655253011e+03 -5.3043989297e+02 3.2418748598e-17 -8.1416412894e+03 -5.3832929776e+02 3.2420845118e-17 -2.3884011652e+01 7.8894047885e+00 -2.0965200764e-21
0.0201027          -8.0689865094e+03 -3.2384574768e+02 -1.7201858006e-17 -8.0450378020e+03 -3.3174575766e+02 -1.7204482605e-17 -2.3948707447e+01 7.9000099788e+00 2.6245983540e-21
0.0202255          -7.8444133979e+03 5.2463599589e+01 4.5378952885e-18 -7.8204113752e+03 4.4554753742e+01 4.5457944188e-18 -2.4002022658e+01 7.9088458470e+00 -7.8991303220e-21
0.0203478          -7.7584607478e+03 2.4925548958e+02 1.0036367502e-17 -7.7344030693e+03 2.4132912267e+02 1.0035979596e-17 -2.4057678520e+01 7.9263669171e+00 3.8790674569e-22
0.0204696          -7.8548160508e+03 1.9776194667e+02 9.2956098364e-18 -7.8306970000e+03 1.8980373387e+02 9.3011185985e-18 -2.4119050823e+01 7.9582127954e+00 -5.5087621019e-21
0.020591           -7.9139660837e+03 1.6564977043e+02 -3.1414756080e-18 -7.8898008670e+03 1.5766248730e+02 -3.1498160833e-18 -2.4165216752e+01 7.9872831335e+00 8.3404752299e-21
0.0207121          -7.9655835002e+03 1.1563844668e+02 6.8322450563e-18 -7.9413760058e+03 1.0762764356e+02 6.8440606708e-18 -2.4207494406e+01 8.0108031130e+00 -1.1815614544e-20
0.0208329          -7.8649588233e+03 2.2291254879e+02 -4.6194889147e-17 -7.8407086024e+03 2.1487998755e+02 -4.6191396785e-17 -2.4250220944e+01 8.0325612427e+00 -3.4923621640e-21
0.0209534          -7.8497237361e+03 2.4206181629e+02 1.6426491766e-17 -7.8254362351e+03 2.3401380914e+02 1.6426249527e-17 -2.4287501089e+01 8.0480071478e+00 2.4223887334e-22
0.0210736          -7.8104698402e+03 2.6759995469e+02 -1.8730707244e-17 -7.7861423035e+03 2.5953826214e+02 -1.8729321366e-17 -2.4327536695e+01 8.0616925503e+00 -1.3858776846e-21
0.0211937          -7.8137924054e+03 2.8120638323e+02 -3.4562888967e-17 -7.7894255072e+03 2.7313517278e+02 -3.4566166976e-17 -2.4366898260e+01 8.0712104519e+00 3.2780088058e-21
0.0213136          -7.7893676095e+03 3.1219661947e+02 1.7137561008e-17 -7.7649647796e+03 3.0411861642e+02 1.7135781332e-17 -2.4402829862e+01 8.0780030472e+00 1.7796763662e-21
0.0214333          -7.4216471308e+03 7.9863743825e+02 8.4638798573e-17 -7.3972109559e+03 7.9055117065e+02 8.4642877979e-17 -2.4436174972e+01 8.0862676071e+00 -4.0794063297e-21
0.021553           -7.6509077796e+03 4.7704220516e+02 -2.0112982723e-17 -7.6264426232e+03 4.6894982120e+02 -2.0117517126e-17 -2.4465156395e+01 8.0923839537e+00 4.5344024195e-21
0.0216725          -7.5787126171e+03 5.5974410147e+02 -7.1610031134e-18 -7.5542147251e+03 5.5164647093e+02 -7.1578262820e-18 -2.4497891973e+01 8.0976305364e+00 -3.1768314515e-21
0.0217919          -7.5499427277e+03 6.7648838933e+02 2.6821715866e-18 -7.5254221442e+03 6.6838608662e+02 2.6796638141e-18 -2.4520583519e+01 8.1023027079e+00 2.5077724461e-21
0.0219113          -7.4705675232e+03 6.5506604365e+02 -9.5542407685e-18 -7.4460246550e+03 6.4695866572e+02 -9.5535376357e-18 -2.4542868223e+01 8.1073779358e+00 -7.0313279082e-22