# Moment          
# CofR            : (0.0000000000e+00 0.0000000000e+00 0.0000000000e+00)
#
# Time            	total_x total_y total_z	pressure_x pressure_y pressure_z	viscous_x viscous_y viscous_z
0.00026696         4.7024478138e-16 6.1447220242e-16 -3.5730307780e+05 4.7024037516e-16 6.1446435428e-16 -3.5730390178e+05 4.4062177711e-21 7.8481316563e-21 8.2397937809e-01
0.000295049        1.2279769976e-16 8.6745938825e-17 -1.2939759053e+05 1.2280547177e-16 8.6759623175e-17 -1.2939880833e+05 -7.7720086624e-21 -1.3684349878e-20 1.2178049199e+00
0.000335812        -8.5192813684e-17 -1.1767855321e-16 -4.7105786754e+04 -8.5195873852e-17 -1.1768200708e-16 -4.7107477579e+04 3.0601685355e-21 3.4538732983e-21 1.6908246978e+00
0.000393754        9.1847111864e-18 -2.3051758120e-18 -2.5068580361e+04 9.1821084729e-18 -2.3088152551e-18 -2.5070725926e+04 2.6027134759e-21 3.6394430762e-21 2.1455655139e+00
0.000470531        2.5001425695e-17 3.0567811015e-17 -1.6260408767e+04 2.5000964220e-17 3.0566517514e-17 -1.6262897107e+04 4.6147481238e-22 1.2935013263e-21 2.4883400906e+00
0.000557903        9.5482275742e-18 1.5618643448e-17 -1.3825171057e+04 9.5461455366e-18 1.5615831516e-17 -1.3828024536e+04 2.0820376124e-21 2.8119322043e-21 2.8534784361e+00
0.000644501        -8.4110993137e-18 -1.4444038946e-17 -1.1843753429e+04 -8.4089002315e-18 -1.4440824837e-17 -1.1846931721e+04 -2.1990821257e-21 -3.2141089690e-21 3.1782921412e+00
0.000744753        -1.8934921768e-17 -2.6336300720e-17 -9.0775626714e+03 -1.8936685116e-17 -2.6338245069e-17 -9.0810711215e+03 1.7633478026e-21 1.9443484996e-21 3.5084501320e+00
0.000861378        4.7064480119e-18 9.6307292667e-18 -8.5123778374e+03 4.7072647322e-18 9.6317610801e-18 -8.5162326988e+03 -8.1672024300e-22 -1.0318134604e-21 3.8548613433e+00
0.000978296        -1.9531548008e-17 -2.7043455608e-17 -8.4814128460e+03 -1.9530632052e-17 -2.7042262209e-17 -8.4855459584e+03 -9.1595557440e-22 -1.1933983752e-21 4.1331124065e+00
0.0010945          6.4268576630e-18 7.2205778804e-18 -8.4497608705e+03 6.4240973507e-18 7.2167592936e-18 -8.4541808090e+03 2.7603122655e-21 3.8185867272e-21 4.4199385109e+00
0.00121121         -1.1980193051e-17 -1.7097661343e-17 -7.6668264517e+03 -1.1982909504e-17 -1.7101140507e-17 -7.6715063857e+03 2.7164528267e-21 3.4791642076e-21 4.6799339958e+00
0.00132576         9.1477091653e-18 1.2726339174e-17 -7.3060764365e+03 9.1469913768e-18 1.2725312119e-17 -7.3109798523e+03 7.1778853642e-22 1.0270547976e-21 4.9034157969e+00
0.00144091         4.7546645545e-18 5.6027827246e-18 -6.9356432043e+03 4.7574366059e-18 5.6067458911e-18 -6.9407468798e+03 -2.7720513857e-21 -3.9631665091e-21 5.1036755756e+00
0.00155701         -3.0039156250e-18 2.8608975255e-19 -6.9482134199e+03 -3.0042016396e-18 2.8620377230e-19 -6.9534477686e+03 2.8601455888e-22 -1.1401974592e-22 5.2343486972e+00
0.00167293         -7.1920946439e-18 -1.1297878162e-17 -6.7043865768e+03 -7.1928158892e-18 -1.1299304107e-17 -6.7097013015e+03 7.2124532251e-22 1.4259450810e-21 5.3147247461e+00
0.00178915         1.3695280310e-17 1.8245757185e-17 -6.5993451580e+03 1.3693423286e-17 1.8242859785e-17 -6.6047287732e+03 1.8570233002e-21 2.8973994681e-21 5.3836151426e+00
0.00190533         -2.7238602619e-18 -5.0212132619e-19 -6.2976503627e+03 -2.7250318372e-18 -5.0372846239e-19 -6.3030900578e+03 1.1715752923e-21 1.6071362036e-21 5.4396950651e+00
0.00202096         1.0581591248e-17 1.3638813389e-17 -6.1329939518e+03 1.0581626731e-17 1.3638919985e-17 -6.1384786612e+03 -3.5483462786e-23 -1.0659557176e-22 5.4847093485e+00
0.00213707         -1.4330748813e-17 -1.9434943228e-17 -5.9469923316e+03 -1.4329601961e-17 -1.9433243377e-17 -5.9524991873e+03 -1.1468518041e-21 -1.6998501158e-21 5.5068557470e+00
0.00225467         -7.6059783709e-18 -9.4538727363e-18 -5.7446007130e+03 -7.6070831614e-18 -9.4552662128e-18 -5.7500870855e+03 1.1047904552e-21 1.3934765262e-21 5.4863724834e+00
0.00237323         1.3282072027e-18 2.5807171070e-18 -5.7863472866e+03 1.3278004157e-18 2.5805777473e-18 -5.7917883709e+03 4.0678702730e-22 1.3935962168e-22 5.4410843049e+00
0.00249179         -6.2026067976e-18 -8.6465593475e-18 -5.6856145651e+03 -6.2052870573e-18 -8.6504431535e-18 -5.6910104630e+03 2.6802597429e-21 3.8838060387e-21 5.3958979074e+00
0.00261049         -4.8620134066e-18 -6.7514917032e-18 -5.5579775196e+03 -4.8635355544e-18 -6.7536818599e-18 -5.5633305752e+03 1.5221477889e-21 2.1901566343e-21 5.3530556057e+00
0.00273026         -1.2634308261e-17 -1.7661060191e-17 -5.4730047336e+03 -1.2634244758e-17 -1.7660721446e-17 -5.4783026457e+03 -6.3503072733e-23 -3.3874516446e-22 5.2979120998e+00
0.00285126         2.1992333531e-18 2.6421130109e-18 -5.5077566997e+03 2.2004000800e-18 2.6432936862e-18 -5.5129901602e+03 -1.1667269111e-21 -1.1806752091e-21 5.2334605605e+00
0.00297305         -6.5477576827e-18 -7.7715598810e-18 -5.3752133189e+03 -6.5486247972e-18 -7.7721065243e-18 -5.3803707591e+03 8.6711453979e-22 5.4664324907e-22 5.1574402272e+00
0.00309529         -2.1291903353e-20 -1.0197314516e-18 -5.1956367136e+03 -2.2191631422e-20 -1.0207167128e-18 -5.2007136991e+03 8.9972806894e-22 9.8526121712e-22 5.0769855095e+00
0.00321806         -6.8131289661e-18 -1.0555594420e-17 -5.0458791810e+03 -6.8134423027e-18 -1.0556033734e-17 -5.0508793691e+03 3.1333661558e-22 4.3931442961e-22 5.0001881202e+00
0.00334165         -2.6757862442e-18 -2.3105748537e-18 -4.9796013115e+03 -2.6772440769e-18 -2.3124098952e-18 -4.9845236180e+03 1.4578326850e-21 1.8350415542e-21 4.9223064224e+00
0.0034661          -2.9251824116e-18 -3.1492122227e-18 -5.1389396438e+03 -2.9259738758e-18 -3.1504049854e-18 -5.1437884372e+03 7.9146422888e-22 1.1927627067e-21 4.8487934212e+00
0.00359129         1.0875556348e-17 1.5148652108e-17 -4.9455290528e+03 1.0874397692e-17 1.5147184328e-17 -4.9503120457e+03 1.1586558675e-21 1.4677803600e-21 4.7829929055e+00
0.00371793         -4.5278567497e-18 -4.6305691938e-18 -4.9907472485e+03 -4.5261790383e-18 -4.6282641702e-18 -4.9954603246e+03 -1.6777113599e-21 -2.3050235830e-21 4.7130760130e+00
0.00384638         -2.4620344772e-18 -2.7516393034e-18 -4.8301173746e+03 -2.4602650413e-18 -2.7490871842e-18 -4.8347476265e+03 -1.7694358682e-21 -2.5521192267e-21 4.6302518816e+00
0.00397645         1.4401492364e-18 -1.7036325555e-18 -4.8042943201e+03 1.4412134318e-18 -1.7025970927e-18 -4.8088230896e+03 -1.0641953638e-21 -1.0354628239e-21 4.5287695088e+00
0.00410786         6.8662790885e-18 7.9718324374e-18 -4.7240393405e+03 6.8673761171e-18 7.9729516847e-18 -4.7284601708e+03 -1.0970285352e-21 -1.1192472601e-21 4.4208302735e+00
0.00424034         5.5723025470e-18 7.2127615599e-18 -4.6938284694e+03 5.5734422376e-18 7.2141043280e-18 -4.6981452502e+03 -1.1396906419e-21 -1.3427680766e-21 4.3167807357e+00
0.00437347         8.3211818621e-18 1.1100137392e-17 -4.6474004621e+03 8.3222547915e-18 1.1101656982e-17 -4.6516236442e+03 -1.0729293935e-21 -1.5195901163e-21 4.2231820413e+00
0.00450698         9.5651317860e-19 2.4983898870e-18 -4.5731382599e+03 9.5590411491e-19 2.4980859741e-18 -4.5772817355e+03 6.0906369867e-22 3.0391293959e-22 4.1434756417e+00
0.0046407          -2.8951800832e-18 -3.9049363341e-18 -4.4707468829e+03 -2.8963308914e-18 -3.9065018985e-18 -4.4748259624e+03 1.1508082237e-21 1.5655643221e-21 4.0790795743e+00
0.00477453         1.4257796284e-18 2.8123868797e-19 -4.3356756276e+03 1.4253880080e-18 2.8100059079e-19 -4.3397074797e+03 3.9162034756e-22 2.3809717976e-22 4.0318520741e+00
0.00490885         -5.4001030969e-18 -6.0382262897e-18 -4.3279126652e+03 -5.4011630624e-18 -6.0392993378e-18 -4.3319042191e+03 1.0599655234e-21 1.0730481488e-21 3.9915539046e+00
0.00504404         4.6259169659e-18 6.5215590600e-18 -4.2233967081e+03 4.6262570865e-18 6.5221022049e-18 -4.2273556326e+03 -3.4012059742e-22 -5.4314485494e-22 3.9589245118e+00
0.00517988         -3.7003008945e-18 -4.1921930735e-18 -4.2252319371e+03 -3.7007971398e-18 -4.1931756929e-18 -4.2291645756e+03 4.9624528043e-22 9.8261938216e-22 3.9326385105e+00
0.0053161          -1.6244660445e-18 -7.0573140902e-20 -4.1998868268e+03 -1.6221671478e-18 -6.7196754184e-20 -4.2037986365e+03 -2.2988966388e-21 -3.3763867181e-21 3.9118096926e+00
0.00545289         -2.2261597043e-18 -3.6220025010e-18 -4.4201870644e+03 -2.2263743376e-18 -3.6219663200e-18 -4.4240716447e+03 2.1463326826e-22 -3.6180955645e-23 3.8845803015e+00
0.00559058         1.2380968249e-18 3.0240380034e-19 -4.5141126784e+03 1.2374335660e-18 3.0167213744e-19 -4.5179562488e+03 6.6325885430e-22 7.3166290690e-22 3.8435703691e+00
0.00572936         -1.5909893921e-18 -7.6481344816e-19 -4.5003333629e+03 -1.5909655410e-18 -7.6483373619e-19 -4.5041223860e+03 -2.3851110137e-23 2.0288033002e-23 3.7890230868e+00
0.00586918         8.4349783916e-19 1.4653538947e-18 -4.5702556530e+03 8.4569967406e-19 1.4677412718e-18 -4.5739813053e+03 -2.2018349007e-21 -2.3873771610e-21 3.7256523387e+00
0.00600985         -1.0100693825e-17 -1.4743199559e-17 -4.4531025075e+03 -1.0102409288e-17 -1.4745545967e-17 -4.4567572326e+03 1.7154633726e-21 2.3464076921e-21 3.6547250795e+00
0.00615132         -3.6201739182e-20 5.1891814125e-19 -4.4813176134e+03 -3.8172845722e-20 5.1626272819e-19 -4.4848973415e+03 1.9711065401e-21 2.6554130690e-21 3.5797281832e+00
0.0062934          -1.4106802044e-18 -5.8353506233e-19 -4.4135976495e+03 -1.4119823807e-18 -5.8484203612e-19 -4.4171051028e+03 1.3021762323e-21 1.3069737872e-21 3.5074533819e+00
0.00643597         1.6834004360e-18 8.6436330843e-19 -4.4290024216e+03 1.6823793018e-18 8.6290618070e-19 -4.4324429856e+03 1.0211342040e-21 1.4571277300e-21 3.4405640545e+00
0.00657888         -2.0955271109e-19 -2.5648446271e-19 -4.3553131408e+03 -2.0964468997e-19 -2.5682137729e-19 -4.3586958710e+03 9.1978883716e-23 3.3691457765e-22 3.3827302029e+00
0.006722           3.7352545605e-18 4.1436963070e-18 -4.2476342517e+03 3.7371292059e-18 4.1458918930e-18 -4.2509694796e+03 -1.8746453818e-21 -2.1955860248e-21 3.3352279348e+00
0.00686513         4.9381669636e-18 8.0366572247e-18 -4.2695622865e+03 4.9353107285e-18 8.0331322096e-18 -4.2728602576e+03 2.8562351129e-21 3.5250151537e-21 3.2979710220e+00
0.00700811         -6.2514802105e-18 -8.1133209830e-18 -4.2031171194e+03 -6.2525860808e-18 -8.1146568669e-18 -4.2063887055e+03 1.1058702087e-21 1.3358838898e-21 3.2715860620e+00
0.00715093         -1.3182142784e-18 -1.2355407686e-18 -4.1376576789e+03 -1.3185366945e-18 -1.2359103737e-18 -4.1409103046e+03 3.2241614582e-22 3.6960512413e-22 3.2526257610e+00
0.00729363         -1.8933470963e-18 -1.3964418387e-18 -4.0908976502e+03 -1.8938897898e-18 -1.3967855487e-18 -4.0941379648e+03 5.4269349910e-22 3.4371001338e-22 3.2403145855e+00
0.00743627         -2.5667093544e-18 -3.8567853355e-18 -4.0332517099e+03 -2.5672561942e-18 -3.8575195202e-18 -4.0364807667e+03 5.4683984781e-22 7.3418466095e-22 3.2290568146e+00
0.00757893         4.1352682587e-18 6.5136118652e-18 -3.9605405945e+03 4.1357679452e-18 6.5141130619e-18 -3.9637575631e+03 -4.9968648788e-22 -5.0119666419e-22 3.2169685747e+00
0.00772165         2.8579309056e-18 3.3318182335e-18 -3.9047749397e+03 2.8578303133e-18 3.3316196875e-18 -3.9079777272e+03 1.0059230072e-22 1.9854603976e-22 3.2027874910e+00
0.00786441         1.2851943617e-18 6.8326777956e-19 -3.8818813672e+03 1.2844532282e-18 6.8207426643e-19 -3.8850676975e+03 7.4113350239e-22 1.1935131326e-21 3.1863302595e+00
0.00800711         -5.4706360671e-19 -1.5101441805e-18 -3.9013627870e+03 -5.4603262003e-19 -1.5086409751e-18 -3.9045321810e+03 -1.0309866844e-21 -1.5032054017e-21 3.1693939984e+00
0.00814952         4.6236734918e-18 5.2265992561e-18 -3.9573076365e+03 4.6240403574e-18 5.2270827820e-18 -3.9604602841e+03 -3.6686562816e-22 -4.8352584812e-22 3.1526475833e+00
0.00829139         5.2778177526e-18 6.8111720863e-18 -3.9601492488e+03 5.2782975273e-18 6.8117455441e-18 -3.9632843778e+03 -4.7977470730e-22 -5.7345784301e-22 3.1351290226e+00
0.00843255         -7.0308746021e-19 -7.2152329901e-19 -3.9864652350e+03 -7.0164291172e-19 -7.1934326869e-19 -3.9895835167e+03 -1.4445484908e-21 -2.1800303144e-21 3.1182816399e+00
0.00857284         2.3038567028e-18 2.7817901386e-18 -3.9853196166e+03 2.3039521324e-18 2.7818722217e-18 -3.9884185243e+03 -9.5429663514e-23 -8.2083143297e-23 3.0989076642e+00
0.00871214         -1.0481909139e-18 -1.6638599904e-18 -3.9375422214e+03 -1.0477048996e-18 -1.6634371261e-18 -3.9406219000e+03 -4.8601433939e-22 -4.2286420862e-22 3.0796785486e+00
0.00885036         7.6002495639e-19 1.5083593488e-18 -3.9185634422e+03 7.5969237297e-19 1.5077713405e-18 -3.9216259397e+03 3.3258342417e-22 5.8800828756e-22 3.0624974772e+00
0.00898742         -5.8934418548e-18 -8.4989188062e-18 -3.8585117981e+03 -5.8917167601e-18 -8.4967171551e-18 -3.8615589994e+03 -1.7250946875e-21 -2.2016510882e-21 3.0472013528e+00
0.00912326         -5.8708803251e-18 -5.8909330195e-18 -3.8059971123e+03 -5.8714554325e-18 -5.8913220299e-18 -3.8090306452e+03 5.7510738086e-22 3.8901037086e-22 3.0335328880e+00
0.00925786         5.5957816577e-18 8.5394676423e-18 -3.7200078579e+03 5.5941001420e-18 8.5375548001e-18 -3.7230283988e+03 1.6815157328e-21 1.9128422329e-21 3.0205409289e+00
0.00939131         4.5752471278e-19 6.3104003688e-19 -3.7135372394e+03 4.5731272906e-19 6.3114820188e-19 -3.7165466063e+03 2.1198372325e-22 -1.0816499331e-22 3.0093668685e+00
0.00952353         7.3764315191e-18 9.1821181282e-18 -3.6653021969e+03 7.3756640309e-18 9.1811333163e-18 -3.6683015254e+03 7.6748817003e-22 9.8481190340e-22 2.9993284189e+00
0.00965456         -3.0384660172e-18 -5.5771910740e-18 -3.6474327415e+03 -3.0390043975e-18 -5.5779791386e-18 -3.6504197559e+03 5.3838026304e-22 7.8806460746e-22 2.9870143807e+00
0.0097845          1.1465346426e-18 6.3165607630e-19 -3.6175433888e+03 1.1466104730e-18 6.3153971675e-19 -3.6205168881e+03 -7.5830415581e-23 1.1635954666e-22 2.9734992867e+00
0.00991348         1.2992257416e-18 2.0754963316e-18 -3.6569038205e+03 1.2989260296e-18 2.0754059065e-18 -3.6598620667e+03 2.9971197121e-22 9.0425070243e-23 2.9582461900e+00
0.0100417          5.1641995615e-19 1.0243415044e-18 -3.6361296414e+03 5.1632328556e-19 1.0239890916e-18 -3.6390719595e+03 9.6670584209e-23 3.5241282486e-22 2.9423180324e+00
0.0101692          -3.5973080791e-18 -4.8073203724e-18 -3.6185585246e+03 -3.5968895930e-18 -4.8071014955e-18 -3.6214840129e+03 -4.1848602502e-22 -2.1887686094e-22 2.9254882106e+00
0.0102964          -3.3029327459e-18 -2.8335695371e-18 -3.5815482872e+03 -3.3027127650e-18 -2.8332954264e-18 -3.5844535559e+03 -2.1998097793e-22 -2.7411067076e-22 2.9052687677e+00
0.0104234          1.1959790616e-18 3.4370903849e-18 -3.5440830742e+03 1.1944435964e-18 3.4354332347e-18 -3.5469639294e+03 1.5354651753e-21 1.6571502817e-21 2.8808551441e+00
0.0105507          6.5304867446e-18 8.2086230207e-18 -3.5124027085e+03 6.5298675103e-18 8.2077341459e-18 -3.5152571531e+03 6.1923428425e-22 8.8887471902e-22 2.8544445312e+00
0.0106786          9.4856820252e-19 2.5703595270e-18 -3.4740588003e+03 9.4920080130e-19 2.5713145204e-18 -3.4768861349e+03 -6.3259877683e-22 -9.5499341414e-22 2.8273346061e+00
0.0108071          -2.0542255746e-18 -1.4594619871e-18 -3.4542591643e+03 -2.0528717698e-18 -1.4577036682e-18 -3.4570578726e+03 -1.3538048632e-21 -1.7583188229e-21 2.7987083172e+00
0.0109364          3.2607781338e-18 3.1961447842e-18 -3.4664355963e+03 3.2586891782e-18 3.1935104947e-18 -3.4692052155e+03 2.0889555229e-21 2.6342894892e-21 2.7696192303e+00
0.0110666          -2.9178500226e-18 -5.3213300742e-18 -3.4201385355e+03 -2.9190144425e-18 -5.3229332217e-18 -3.4228791715e+03 1.1644199224e-21 1.6031474808e-21 2.7406359410e+00
0.0111978          -4.9989889999e-18 -4.9513788642e-18 -3.4162578566e+03 -4.9993714109e-18 -4.9515059269e-18 -3.4189707714e+03 3.8241109399e-22 1.2706265546e-22 2.7129147821e+00
0.0113299          -5.4687158048e-18 -6.4733205275e-18 -3.4249345950e+03 -5.4693672464e-18 -6.4739406763e-18 -3.4276202344e+03 6.5144160088e-22 6.2014879657e-22 2.6856393390e+00
0.0114631          -1.5985856922e-18 -1.6243018597e-18 -3.4434349462e+03 -1.5997900442e-18 -1.6252525082e-18 -3.4460934044e+03 1.2043519881e-21 9.5064854694e-22 2.6584582228e+00
0.0115974          8.0878233180e-18 1.1774843894e-17 -3.4210317075e+03 8.0873794529e-18 1.1774523100e-17 -3.4236636351e+03 4.4386507371e-22 3.2079393182e-22 2.6319275645e+00
0.0117327          -6.1961428065e-18 -8.0705482562e-18 -3.4169994761e+03 -6.1955710966e-18 -8.0699488463e-18 -3.4196066453e+03 -5.7170986113e-22 -5.9940996559e-22 2.6071692105e+00
0.0118692          6.4400396059e-19 1.7306753307e-18 -3.4062739380e+03 6.4424702912e-19 1.7309042815e-18 -3.4088578594e+03 -2.4306852235e-22 -2.2895081494e-22 2.5839213607e+00
0.0120067          -5.4886461182e-18 -8.0098447129e-18 -3.3961342224e+03 -5.4879346903e-18 -8.0090109195e-18 -3.3986962409e+03 -7.1142788897e-22 -8.3379347120e-22 2.5620185533e+00
0.0121454          1.4991513173e-19 9.2815649686e-19 -3.4105218396e+03 1.4965553573e-19 9.2777216091e-19 -3.4130631021e+03 2.5959600546e-22 3.8433594624e-22 2.5412624863e+00
0.0122852          -4.2493018298e-18 -5.8565960527e-18 -3.4334839136e+03 -4.2485109870e-18 -5.8558992335e-18 -3.4360058608e+03 -7.9084286205e-22 -6.9681927253e-22 2.5219471961e+00
0.012426           -2.7807028930e-18 -3.3800990892e-18 -3.4317943217e+03 -2.7805607265e-18 -3.3795154677e-18 -3.4342986421e+03 -1.4216650365e-22 -5.8362147418e-22 2.5043203891e+00
0.0125678          -2.7617998744e-18 -4.6405123772e-18 -3.4549766463e+03 -2.7626571781e-18 -4.6416274752e-18 -3.4574649352e+03 8.5730369239e-22 1.1150980002e-21 2.4882889629e+00
0.0127105          -2.3252187767e-18 -4.1631365100e-18 -3.4693337660e+03 -2.3251107523e-18 -4.1633271449e-18 -3.4718076553e+03 -1.0802440661e-22 1.9063487774e-22 2.4738893501e+00
0.0128543          4.8096193453e-19 2.0948054591e-18 -3.4860802657e+03 4.8088039458e-19 2.0949405014e-18 -3.4885407563e+03 8.1539943222e-23 -1.3504229509e-22 2.4604905587e+00
0.0129991          3.4847065274e-18 4.6556600513e-18 -3.4955164967e+03 3.4839942852e-18 4.6549363825e-18 -3.4979635528e+03 7.1224223366e-22 7.2366885930e-22 2.4470560839e+00
0.0131448          -9.0492663644e-18 -1.1523555411e-17 -3.5352971514e+03 -9.0490857112e-18 -1.1523234111e-17 -3.5377322079e+03 -1.8065326847e-22 -3.2129991590e-22 2.4350564163e+00
0.0132916          -3.5254256616e-19 -8.7140622180e-19 -3.5654526006e+03 -3.5169068983e-19 -8.7036885855e-19 -3.5678778709e+03 -8.5187633380e-22 -1.0373632550e-21 2.4252703069e+00
0.0134393          3.0355372159e-18 3.6185645258e-18 -3.5864762473e+03 3.0353210338e-18 3.6181763002e-18 -3.5888943649e+03 2.1618201989e-22 3.8822565426e-22 2.4181175847e+00
0.0135879          -2.6238834727e-19 5.2920845756e-19 -3.5891287039e+03 -2.6372658558e-19 5.2770024614e-19 -3.5915424260e+03 1.3382383106e-21 1.5082114280e-21 2.4137221339e+00
0.0137373          -2.2076072099e-18 -2.1083193941e-18 -3.5882043547e+03 -2.2064207055e-18 -2.1068449925e-18 -3.5906156059e+03 -1.1865043388e-21 -1.4744016153e-21 2.4112511787e+00
0.0138874          3.7918947706e-18 5.0809300691e-18 -3.6000847301e+03 3.7917719499e-18 5.0806782516e-18 -3.6024963567e+03 1.2282072889e-22 2.5181746697e-22 2.4116265886e+00
0.0140381          -9.5508342103e-18 -1.2447829766e-17 -3.6104535920e+03 -9.5494521288e-18 -1.2446146175e-17 -3.6128681781e+03 -1.3820815360e-21 -1.6835907627e-21 2.4145861606e+00
0.0141894          3.4364001669e-18 3.1707225532e-18 -3.6409308103e+03 3.4374621573e-18 3.1718381032e-18 -3.6433511774e+03 -1.0619903641e-21 -1.1155500379e-21 2.4203670592e+00
0.0143411          -8.5777464962e-18 -1.0963234161e-17 -3.6521289459e+03 -8.5777660303e-18 -1.0963041926e-17 -3.6545566351e+03 1.9534064760e-23 -1.9223469055e-22 2.4276891956e+00
0.0144933          -2.5521279270e-18 -2.2004850471e-18 -3.6633699099e+03 -2.5528993469e-18 -2.2011482874e-18 -3.6658064916e+03 7.7141990350e-22 6.6324032405e-22 2.4365817503e+00
0.0146458          5.3816592100e-18 5.9929186898e-18 -3.7001935222e+03 5.3821306283e-18 5.9935196123e-18 -3.7026411456e+03 -4.7141832724e-22 -6.0092248771e-22 2.4476233931e+00
0.0147985          -1.6512779157e-18 -2.7661013166e-18 -3.7413165200e+03 -1.6511417705e-18 -2.7658254480e-18 -3.7437783370e+03 -1.3614521923e-22 -2.7586861550e-22 2.4618169860e+00
0.0149514          -6.0877204839e-19 -1.1057179586e-18 -3.7425901476e+03 -6.0720777560e-19 -1.1038679226e-18 -3.7450690976e+03 -1.5642727984e-21 -1.8500360326e-21 2.4789499519e+00
0.0151041          1.7426433589e-18 2.3705399839e-18 -3.7517084150e+03 1.7408662277e-18 2.3687552441e-18 -3.7542061122e+03 1.7771312218e-21 1.7847397802e-21 2.4976972286e+00
0.0152567          5.6948683452e-18 7.4705415217e-18 -3.7647941614e+03 5.6959217088e-18 7.4715905093e-18 -3.7673122565e+03 -1.0533636577e-21 -1.0489875365e-21 2.5180951010e+00
0.0154089          -2.6142914261e-18 -3.5586210729e-18 -3.7752543734e+03 -2.6132303888e-18 -3.5573241060e-18 -3.7777946816e+03 -1.0610372501e-21 -1.2969668044e-21 2.5403082053e+00
0.0155606          -3.4645629354e-18 -1.8756807361e-18 -3.7896550109e+03 -3.4639213390e-18 -1.8749674031e-18 -3.7922190586e+03 -6.4159642966e-22 -7.1333299464e-22 2.5640476817e+00
0.0157117          1.0336374958e-18 -5.9464929309e-19 -3.7709577091e+03 1.0309366650e-18 -5.9818480228e-19 -3.7735467815e+03 2.7008307975e-21 3.5355091893e-21 2.5890724503e+00
0.0158621          2.1647630050e-18 3.0362849433e-18 -3.7730890905e+03 2.1652693373e-18 3.0367555753e-18 -3.7757042089e+03 -5.0633225702e-22 -4.7063198158e-22 2.6151183477e+00
0.0160119          -1.7660307794e-18 -1.9508077064e-18 -3.7788487313e+03 -1.7672243345e-18 -1.9521481973e-18 -3.7814921229e+03 1.1935551299e-21 1.3404908782e-21 2.6433916585e+00
0.0161608          -2.5088591073e-18 -4.5616739325e-18 -3.7933131400e+03 -2.5071811606e-18 -4.5594653496e-18 -3.7959841896e+03 -1.6779466757e-21 -2.2085828490e-21 2.6710496337e+00
0.0163088          6.0144047887e-18 7.3340493746e-18 -3.8006903751e+03 6.0147021009e-18 7.3344174922e-18 -3.8033881049e+03 -2.9731218559e-22 -3.6811763122e-22 2.6977297987e+00
0.016456           -4.0123984089e-18 -6.1364840610e-18 -3.7971735558e+03 -4.0127412709e-18 -6.1370167693e-18 -3.7998984569e+03 3.4286202603e-22 5.3270834402e-22 2.7249011119e+00
0.0166023          2.6481885300e-18 4.4880977363e-18 -3.7994858010e+03 2.6483262905e-18 4.4884520456e-18 -3.8022380278e+03 -1.3776058540e-22 -3.5430922823e-22 2.7522267823e+00
0.0167479          -5.1118160848e-18 -4.9433006372e-18 -3.7491800291e+03 -5.1116717724e-18 -4.9430160933e-18 -3.7519595634e+03 -1.4431235723e-22 -2.8454385972e-22 2.7795343589e+00
0.0168929          -7.7402573138e-18 -8.6969122271e-18 -3.7436603453e+03 -7.7397184937e-18 -8.6962236252e-18 -3.7464671162e+03 -5.3882004691e-22 -6.8860186870e-22 2.8067708884e+00
0.0170372          1.4358464001e-18 2.5608899860e-18 -3.7283123326e+03 1.4357875087e-18 2.5607365570e-18 -3.7311468613e+03 5.8891456726e-23 1.5342901212e-22 2.8345287574e+00
0.017181           -1.7254879211e-18 8.9253791559e-19 -3.7340789158e+03 -1.7263384466e-18 8.9193876276e-19 -3.7369421016e+03 8.5052548240e-22 5.9915283771e-22 2.8631858266e+00
0.0173242          4.8678771264e-18 3.7813627028e-18 -3.7326310591e+03 4.8681030946e-18 3.7814365549e-18 -3.7355237275e+03 -2.2596818219e-22 -7.3852134594e-23 2.8926683876e+00
0.0174667          -2.7518947022e-18 -2.7725699770e-18 -3.7662161924e+03 -2.7511352582e-18 -2.7720404072e-18 -3.7691394394e+03 -7.5944397058e-22 -5.2956974348e-22 2.9232469846e+00
0.0176085          -6.5054646128e-18 -5.5161479351e-18 -3.7899194423e+03 -6.5059155952e-18 -5.5168407418e-18 -3.7928744511e+03 4.5098236139e-22 6.9280669516e-22 2.9550087663e+00
0.0177495          3.8773582345e-18 3.0852691971e-18 -3.7644491556e+03 3.8793274226e-18 3.0874465481e-18 -3.7674367438e+03 -1.9691881481e-21 -2.1773509781e-21 2.9875882673e+00
0.0178896          -1.6281926924e-18 -3.3789025733e-18 -3.7410059743e+03 -1.6275719041e-18 -3.3783125716e-18 -3.7440270205e+03 -6.2078830927e-22 -5.9000170432e-22 3.0210461880e+00
0.0180286          -2.4599389968e-18 -4.5000728851e-18 -3.7238645607e+03 -2.4596325655e-18 -4.4998998385e-18 -3.7269202932e+03 -3.0643131322e-22 -1.7304662829e-22 3.0557325303e+00
0.0181665          1.1572165252e-17 1.5295965655e-17 -3.7270997503e+03 1.1570973974e-17 1.5294490355e-17 -3.7301916444e+03 1.1912779084e-21 1.4753002079e-21 3.0918940990e+00
0.0183033          -7.4115820040e-18 -8.2974953808e-18 -3.7111024446e+03 -7.4113371087e-18 -8.2971792668e-18 -3.7142310486e+03 -2.4489527978e-22 -3.1611399730e-22 3.1286040075e+00
0.0184388          1.5089816165e-18 1.0299719685e-18 -3.7600532907e+03 1.5101255337e-18 1.0312793686e-18 -3.7632181931e+03 -1.1439171440e-21 -1.3074000913e-21 3.1649024044e+00
0.0185731          -4.9264003900e-18 -9.6864658244e-18 -3.5080617177e+03 -4.9256783273e-18 -9.6854672202e-18 -3.5112619986e+03 -7.2206264435e-22 -9.9860416940e-22 3.2002808727e+00
0.0187061          -9.2886415418e-18 -1.3083212688e-17 -3.6285010823e+03 -9.2895624662e-18 -1.3084402840e-17 -3.6317350621e+03 9.2092440357e-22 1.1901525122e-21 3.2339798209e+00
0.0188379          4.5648585970e-18 5.9557673650e-18 -3.5816297760e+03 4.5642869417e-18 5.9548311735e-18 -3.5848955881e+03 5.7165528999e-22 9.3619145239e-22 3.2658121557e+00
0.0189685          -3.4954083829e-18 -4.6878036718e-18 -3.4985078176e+03 -3.4947077939e-18 -4.6874125410e-18 -3.5018039097e+03 -7.0058905948e-22 -3.9113079646e-22 3.2960921152e+00
0.0190979          -2.5934457617e-18 -1.6419551488e-18 -3.4603542908e+03 -2.5928599099e-18 -1.6412744383e-18 -3.4636786188e+03 -5.8585185421e-22 -6.8071042867e-22 3.3243279942e+00
0.0192263          9.0536604252e-19 1.8333464584e-18 -3.4554200896e+03 9.0435224803e-19 1.8323317527e-18 -3.4587707986e+03 1.0137944876e-21 1.0147056607e-21 3.3507089792e+00
0.0193538          7.1928169567e-18 8.5412414026e-18 -3.3719590751e+03 7.1907802946e-18 8.5388175546e-18 -3.3753344415e+03 2.0366620697e-21 2.4238480691e-21 3.3753663652e+00
0.0194803          2.2384997585e-18 2.2386662346e-18 -3.3029947481e+03 2.2387746132e-18 2.2388115730e-18 -3.3063916869e+03 -2.7485469686e-22 -1.4533843766e-22 3.3969388201e+00
0.0196061          1.3999144779e-18 1.1463497929e-18 -3.1882206904e+03 1.3994902057e-18 1.1458445298e-18 -3.1916362251e+03 4.2427215608e-22 5.0526308409e-22 3.4155347138e+00
0.0197312          5.1620652172e-18 6.7354729777e-18 -3.0976854094e+03 5.1637005229e-18 6.7373860055e-18 -3.1011171048e+03 -1.6353057496e-21 -1.9130278595e-21 3.4316954328e+00
0.0198557          -8.0675121634e-19 -1.7078782501e-18 -3.0746138313e+03 -8.0935149730e-19 -1.7108075046e-18 -3.0780589735e+03 2.6002809561e-21 2.9292544391e-21 3.4451421788e+00
0.0199795          5.4315625703e-18 6.8927801381e-18 -2.9886676663e+03 5.4316671786e-18 6.8927253096e-18 -2.9921237885e+03 -1.0460832947e-22 5.4828420783e-23 3.4561222403e+00
0.0201027          -4.0396529269e-18 -5.0445487428e-18 -2.9070759247e+03 -4.0400879515e-18 -5.0449022870e-18 -2.9105407620e+03 4.3502462394e-22 3.5354416166e-22 3.4648373077e+00
0.0202255          2.8171880161e-18 4.6660199608e-18 -2.8001182337e+03 2.8190152701e-18 4.6681086193e-18 -2.8035889203e+03 -1.8272540447e-21 -2.0886585029e-21 3.4706866099e+00
0.0203478          1.6275423267e-18 2.3301788395e-18 -2.7095967625e+03 1.6274001787e-18 2.3298779803e-18 -2.7130717722e+03 1.4214803092e-22 3.0085923223e-22 3.4750096991e+00
0.0204696          3.0730365661e-18 3.9540502555e-18 -2.7045802822e+03 3.0743263455e-18 3.9553118728e-18 -2.7080555214e+03 -1.2897793681e-21 -1.2616173539e-21 3.4752392502e+00
0.020591           -2.6678664743e-18 -2.4826643535e-18 -2.6782661493e+03 -2.6696878036e-18 -2.4847255274e-18 -2.6817392406e+03 1.8213293409e-21 2.0611738845e-21 3.4730913160e+00
0.0207121          -1.1221099752e-18 -1.2647503689e-18 -2.6687883623e+03 -1.1199430067e-18 -1.2623031841e-18 -2.6722599518e+03 -2.1669684391e-21 -2.4471847568e-21 3.4715894849e+00
0.0208329          -7.5269293848e-18 -9.0722866415e-18 -2.6215560300e+03 -7.5260432417e-18 -9.0711183142e-18 -2.6250267394e+03 -8.8614312506e-22 -1.1683273372e-21 3.4707094265e+00
0.0209534          6.9045075348e-18 6.6418076593e-18 -2.6033321954e+03 6.9043660779e-18 6.6413986409e-18 -2.6068021757e+03 1.4145686655e-22 4.0901845183e-22 3.4699803483e+00
0.0210736          -8.6568090561e-18 -1.1546264555e-17 -2.5706488459e+03 -8.6568500458e-18 -1.1546404598e-17 -2.5741194190e+03 4.0989682760e-23 1.4004365063e-22 3.4705731336e+00
0.0211937          -7.4962533066e-18 -9.3729773857e-18 -2.5379983760e+03 -7.4969341150e-18 -9.3734849765e-18 -2.5414700893e+03 6.8080841136e-22 5.0759072811e-22 3.4717132516e+00
0.0213136          4.3879607032e-18 7.2297271046e-18 -2.5142399023e+03 4.3874417373e-18 7.2292504361e-18 -2.5177123275e+03 5.1896590921e-22 4.7666848453e-22 3.4724251704e+00
0.0214333          1.6528016920e-17 2.1062357399e-17 -2.3866048848e+03 1.6528588951e-17 2.1063015349e-17 -2.3900782484e+03 -5.7203132248e-22 -6.5795028042e-22 3.4733636612e+00
0.021553           -4.3557819784e-19 -7.3369641398e-19 -2.4283953882e+03 -4.3644783900e-19 -7.3481643754e-19 -2.4318687073e+03 8.6964115866e-22 1.1200235608e-21 3.4733190410e+00
0.0216725          -7.8784539730e-19 -1.6351622866e-18 -2.3877044370e+03 -7.8735423463e-19 -1.6347964327e-18 -2.3911772763e+03 -4.9116267413e-22 -3.6585394870e-22 3.4728393533e+00
0.0217919          -4.2282150033e-18 -3.9423287027e-18 -2.3445505897e+03 -4.2287349568e-18 -3.9427495585e-18 -2.3480217655e+03 5.1995348537e-22 4.2085588293e-22 3.4711758337e+00
0.0219113          -1.1620649819e-18 -5.0372762278e-19 -2.3137308707e+03 -1.1619651889e-18 -5.0373445460e-19 -2.3171997058e+03 -9.9792925608e-23 6.8318217976e-24 3.4688351148e+00
0.0220307          9.8526746934e-18 1.2706426981e-17 -2.2266364698e+03 9.8517019836e-18 1.2705231603e-17 -2.2301016297e+03 9.7270979477e-22 1.1953784899e-21 3.4651599360e+00
0.02215            5.0783203003e-18 6.1082446312e-18 -2.2373794033e+03 5.0797299926e-18 6.1097999355e-18 -2.2408406263e+03 -1.4096923400e-21 -1.5553043137e-21 3.4612230412e+00